# vtk DataFile Version 3.4
Image
ASCII
DATASET STRUCTURED_POINTS
DIMENSIONS 57 40 1
ORIGIN 0.000000 0.000000 0.000000
SPACING 1.000000 1.000000 1.000000
POINT_DATA 2280
SCALARS facies float 1
LOOKUP_TABLE default
332.425
332.435
332.452
332.475
332.501
332.529
332.558
332.588
332.619
332.65
332.683
332.716
332.749
332.784
332.82
332.856
332.893
332.932
332.971
333.012
333.053
333.096
333.14
333.186
333.233
333.282
333.333
333.385
333.44
333.497
333.556
333.618
333.682
333.749
333.819
333.89
333.964
334.039
334.116
334.193
334.27
334.346
334.42
334.493
334.563
334.628
334.69
334.747
334.798
334.844
334.883
334.917
334.945
334.967
334.983
334.994
334.999
332.417
332.426
332.444
332.466
332.492
332.52
332.549
332.579
332.609
332.64
332.673
332.705
332.739
332.773
332.809
332.845
332.882
332.92
332.96
333
333.041
333.084
333.128
333.174
333.221
333.27
333.32
333.373
333.427
333.484
333.544
333.606
333.671
333.738
333.808
333.881
333.956
334.033
334.111
334.189
334.268
334.346
334.423
334.497
334.568
334.636
334.699
334.757
334.809
334.855
334.895
334.929
334.957
334.978
334.994
335.004
335.009
332.403
332.413
332.43
332.452
332.477
332.504
332.533
332.562
332.592
332.623
332.655
332.687
332.721
332.755
332.79
332.826
332.863
332.901
332.94
332.98
333.021
333.063
333.107
333.152
333.199
333.247
333.297
333.35
333.404
333.461
333.521
333.584
333.649
333.718
333.789
333.864
333.941
334.02
334.101
334.183
334.265
334.346
334.426
334.504
334.579
334.649
334.715
334.775
334.829
334.877
334.917
334.951
334.978
334.998
335.013
335.022
335.027
332.388
332.397
332.413
332.435
332.459
332.486
332.513
332.542
332.572
332.602
332.633
332.665
332.698
332.732
332.766
332.802
332.838
332.876
332.914
332.954
332.995
333.037
333.08
333.125
333.171
333.219
333.269
333.321
333.375
333.432
333.492
333.555
333.621
333.691
333.764
333.841
333.921
334.004
334.088
334.174
334.26
334.346
334.43
334.513
334.591
334.666
334.735
334.798
334.855
334.903
334.945
334.978
335.005
335.024
335.037
335.045
335.049
332.372
332.381
332.396
332.417
332.44
332.466
332.493
332.521
332.55
332.579
332.61
332.642
332.674
332.707
332.741
332.776
332.812
332.849
332.887
332.926
332.966
333.008
333.051
333.095
333.141
333.188
333.237
333.288
333.342
333.398
333.458
333.521
333.588
333.659
333.735
333.814
333.897
333.983
334.072
334.162
334.253
334.344
334.434
334.521
334.605
334.684
334.758
334.824
334.883
334.934
334.976
335.009
335.034
335.052
335.063
335.069
335.071
332.356
332.365
332.38
332.4
332.422
332.447
332.473
332.5
332.528
332.557
332.587
332.618
332.649
332.682
332.715
332.75
332.785
332.822
332.859
332.898
332.937
332.978
333.02
333.064
333.109
333.155
333.203
333.254
333.307
333.362
333.422
333.484
333.552
333.624
333.701
333.783
333.869
333.959
334.052
334.148
334.244
334.341
334.436
334.529
334.618
334.703
334.781
334.852
334.914
334.966
335.009
335.042
335.065
335.081
335.089
335.093
335.094
332.341
332.349
332.363
332.382
332.404
332.428
332.453
332.479
332.506
332.534
332.564
332.594
332.625
332.656
332.689
332.723
332.758
332.794
332.831
332.869
332.908
332.948
332.989
333.032
333.076
333.122
333.169
333.218
333.27
333.324
333.382
333.445
333.512
333.585
333.663
333.748
333.837
333.931
334.029
334.13
334.232
334.335
334.436
334.536
334.631
334.721
334.805
334.88
334.946
335
335.043
335.075
335.097
335.109
335.114
335.115
335.114
332.325
332.333
332.347
332.365
332.386
332.409
332.433
332.458
332.485
332.512
332.54
332.57
332.6
332.631
332.663
332.697
332.731
332.766
332.802
332.839
332.878
332.917
332.958
333
333.043
333.087
333.133
333.181
333.231
333.284
333.341
333.402
333.468
333.541
333.621
333.708
333.801
333.9
334.003
334.109
334.217
334.326
334.434
334.54
334.643
334.74
334.829
334.91
334.979
335.036
335.079
335.11
335.129
335.137
335.138
335.136
335.133
332.31
332.317
332.331
332.349
332.369
332.39
332.414
332.438
332.463
332.49
332.517
332.546
332.575
332.606
332.637
332.67
332.703
332.738
332.773
332.81
332.848
332.887
332.927
332.968
333.01
333.053
333.098
333.144
333.192
333.243
333.297
333.356
333.421
333.494
333.575
333.664
333.761
333.865
333.973
334.085
334.199
334.314
334.429
334.542
334.652
334.756
334.853
334.939
335.013
335.073
335.116
335.145
335.16
335.164
335.16
335.153
335.148
332.294
332.301
332.314
332.331
332.351
332.372
332.394
332.418
332.442
332.468
332.495
332.522
332.551
332.58
332.611
332.643
332.676
332.71
332.745
332.781
332.818
332.856
332.895
332.936
332.977
333.019
333.062
333.106
333.152
333.2
333.252
333.308
333.371
333.443
333.525
333.616
333.717
333.825
333.939
334.057
334.177
334.299
334.42
334.541
334.658
334.77
334.875
334.969
335.048
335.11
335.154
335.179
335.189
335.187
335.178
335.166
335.158
332.278
332.285
332.298
332.314
332.333
332.353
332.375
332.398
332.421
332.446
332.472
332.498
332.526
332.555
332.585
332.616
332.648
332.682
332.716
332.752
332.788
332.826
332.865
332.904
332.945
332.986
333.027
333.07
333.113
333.158
333.206
333.259
333.319
333.389
333.471
333.565
333.67
333.783
333.902
334.025
334.151
334.278
334.406
334.534
334.659
334.78
334.893
334.995
335.081
335.147
335.19
335.211
335.215
335.206
335.189
335.172
335.162
332.262
332.268
332.281
332.297
332.315
332.335
332.356
332.378
332.4
332.424
332.449
332.475
332.501
332.529
332.558
332.589
332.62
332.653
332.687
332.723
332.759
332.796
332.835
332.874
332.913
332.953
332.993
333.034
333.075
333.117
333.162
333.211
333.267
333.335
333.417
333.513
333.621
333.738
333.862
333.989
334.12
334.253
334.386
334.52
334.653
334.782
334.905
335.016
335.109
335.178
335.22
335.237
335.233
335.216
335.192
335.17
335.157
332.245
332.252
332.264
332.28
332.297
332.316
332.337
332.358
332.38
332.402
332.426
332.451
332.477
332.504
332.532
332.561
332.592
332.625
332.659
332.693
332.73
332.767
332.805
332.844
332.883
332.922
332.961
333
333.039
333.078
333.12
333.166
333.219
333.285
333.366
333.462
333.573
333.693
333.82
333.951
334.085
334.221
334.359
334.497
334.636
334.773
334.904
335.024
335.125
335.198
335.239
335.25
335.239
335.213
335.183
335.156
335.14
332.229
332.235
332.247
332.262
332.279
332.298
332.317
332.338
332.359
332.381
332.404
332.427
332.452
332.478
332.505
332.534
332.564
332.596
332.629
332.664
332.7
332.737
332.775
332.814
332.853
332.892
332.93
332.968
333.006
333.043
333.083
333.126
333.177
333.241
333.32
333.417
333.528
333.649
333.776
333.908
334.044
334.182
334.322
334.464
334.607
334.748
334.886
335.012
335.119
335.195
335.235
335.242
335.225
335.193
335.158
335.128
335.11
332.212
332.218
332.23
332.245
332.261
332.279
332.298
332.318
332.339
332.36
332.381
332.404
332.427
332.452
332.478
332.506
332.536
332.567
332.6
332.634
332.67
332.707
332.745
332.785
332.824
332.863
332.901
332.939
332.975
333.012
333.05
333.092
333.142
333.204
333.283
333.377
333.486
333.605
333.732
333.863
333.998
334.135
334.276
334.418
334.562
334.705
334.845
334.974
335.082
335.159
335.199
335.205
335.185
335.152
335.115
335.084
335.066
332.195
332.201
332.212
332.227
332.243
332.261
332.279
332.299
332.318
332.339
332.359
332.381
332.403
332.426
332.451
332.478
332.507
332.538
332.57
332.604
332.639
332.676
332.715
332.755
332.795
332.835
332.874
332.911
332.947
332.983
333.021
333.063
333.113
333.174
333.251
333.342
333.447
333.562
333.685
333.813
333.945
334.081
334.219
334.36
334.501
334.642
334.778
334.905
335.011
335.087
335.127
335.134
335.118
335.087
335.053
335.023
335.006
332.178
332.184
332.195
332.209
332.225
332.243
332.261
332.279
332.299
332.318
332.338
332.358
332.379
332.401
332.425
332.451
332.478
332.508
332.539
332.572
332.606
332.643
332.682
332.723
332.765
332.806
332.846
332.884
332.92
332.956
332.994
333.036
333.085
333.146
333.22
333.308
333.408
333.518
333.635
333.759
333.887
334.018
334.153
334.288
334.425
334.559
334.689
334.808
334.909
334.982
335.023
335.035
335.025
335.001
334.972
334.946
334.931
332.16
332.167
332.177
332.191
332.207
332.224
332.242
332.26
332.279
332.298
332.317
332.336
332.356
332.377
332.4
332.424
332.45
332.477
332.507
332.538
332.571
332.607
332.647
332.689
332.732
332.776
332.818
332.856
332.893
332.928
332.965
333.007
333.056
333.116
333.187
333.27
333.365
333.47
333.582
333.7
333.822
333.948
334.077
334.206
334.335
334.462
334.582
334.692
334.785
334.854
334.897
334.915
334.912
334.897
334.876
334.856
334.843
332.143
332.149
332.16
332.173
332.189
332.206
332.224
332.242
332.26
332.278
332.297
332.315
332.334
332.353
332.374
332.397
332.421
332.446
332.473
332.501
332.532
332.567
332.606
332.649
332.695
332.741
332.785
332.825
332.861
332.896
332.932
332.973
333.022
333.08
333.149
333.228
333.318
333.416
333.522
333.635
333.751
333.871
333.992
334.114
334.235
334.353
334.464
334.564
334.649
334.714
334.758
334.782
334.788
334.781
334.768
334.754
334.745
332.125
332.131
332.141
332.155
332.171
332.188
332.206
332.223
332.241
332.259
332.277
332.294
332.311
332.33
332.349
332.37
332.391
332.413
332.436
332.461
332.489
332.521
332.559
332.602
332.649
332.697
332.744
332.785
332.822
332.856
332.892
332.933
332.981
333.038
333.103
333.179
333.264
333.357
333.458
333.564
333.674
333.787
333.901
334.015
334.128
334.236
334.338
334.429
334.508
334.57
334.615
334.643
334.655
334.657
334.651
334.643
334.637
332.106
332.112
332.123
332.137
332.152
332.169
332.187
332.205
332.223
332.24
332.257
332.273
332.289
332.305
332.323
332.341
332.359
332.378
332.396
332.416
332.439
332.467
332.502
332.545
332.592
332.642
332.69
332.733
332.772
332.808
332.844
332.886
332.933
332.988
333.051
333.124
333.204
333.293
333.388
333.488
333.592
333.698
333.805
333.911
334.015
334.115
334.208
334.292
334.365
334.425
334.47
334.501
334.52
334.528
334.529
334.526
334.524
332.087
332.093
332.104
332.117
332.133
332.151
332.169
332.187
332.205
332.221
332.237
332.251
332.265
332.279
332.294
332.309
332.324
332.337
332.35
332.363
332.38
332.404
332.435
332.476
332.523
332.573
332.623
332.668
332.71
332.748
332.788
332.83
332.878
332.932
332.993
333.062
333.139
333.223
333.313
333.408
333.506
333.605
333.705
333.803
333.899
333.991
334.077
334.155
334.223
334.28
334.326
334.36
334.383
334.396
334.403
334.406
334.406
332.068
332.073
332.084
332.097
332.113
332.131
332.15
332.169
332.186
332.202
332.216
332.228
332.239
332.25
332.261
332.273
332.283
332.291
332.296
332.302
332.312
332.33
332.357
332.394
332.44
332.49
332.542
332.591
332.636
332.68
332.723
332.768
332.816
332.87
332.929
332.996
333.069
333.15
333.235
333.325
333.417
333.509
333.602
333.693
333.782
333.866
333.946
334.018
334.082
334.138
334.183
334.219
334.245
334.264
334.276
334.282
334.285
332.047
332.053
332.063
332.076
332.092
332.111
332.13
332.15
332.168
332.183
332.195
332.204
332.212
332.218
332.225
332.231
332.236
332.237
332.235
332.232
332.234
332.245
332.267
332.301
332.345
332.396
332.45
332.503
332.555
332.604
332.652
332.7
332.75
332.803
332.861
332.926
332.996
333.073
333.155
333.239
333.325
333.411
333.497
333.581
333.663
333.741
333.815
333.882
333.943
333.997
334.042
334.079
334.109
334.131
334.147
334.158
334.163
332.026
332.031
332.041
332.054
332.07
332.089
332.109
332.129
332.147
332.162
332.172
332.178
332.181
332.184
332.185
332.186
332.183
332.176
332.166
332.154
332.147
332.149
332.165
332.197
332.241
332.294
332.352
332.411
332.47
332.526
332.578
332.629
332.68
332.733
332.79
332.852
332.921
332.994
333.072
333.152
333.232
333.313
333.392
333.469
333.544
333.616
333.684
333.748
333.806
333.858
333.903
333.942
333.974
333.999
334.019
334.033
334.04
332.004
332.009
332.017
332.03
332.045
332.064
332.084
332.105
332.124
332.137
332.145
332.148
332.148
332.146
332.143
332.137
332.128
332.114
332.094
332.072
332.054
332.046
332.055
332.084
332.129
332.187
332.252
332.318
332.384
332.446
332.504
332.557
332.608
332.659
332.715
332.776
332.843
332.914
332.989
333.064
333.139
333.213
333.286
333.356
333.425
333.492
333.555
333.615
333.67
333.721
333.766
333.806
333.84
333.869
333.892
333.908
333.917
331.982
331.986
331.993
332.004
332.018
332.036
332.056
332.077
332.095
332.108
332.114
332.115
332.112
332.106
332.099
332.089
332.075
332.054
332.027
331.995
331.964
331.945
331.945
331.97
332.018
332.082
332.155
332.229
332.301
332.368
332.428
332.482
332.532
332.582
332.637
332.697
332.762
332.832
332.904
332.976
333.046
333.114
333.18
333.244
333.307
333.368
333.427
333.484
333.537
333.586
333.632
333.672
333.708
333.74
333.766
333.785
333.795
331.96
331.963
331.968
331.977
331.99
332.006
332.025
332.044
332.061
332.072
332.078
332.077
332.073
332.066
332.057
332.045
332.028
332.003
331.97
331.93
331.891
331.862
331.854
331.875
331.925
331.993
332.071
332.15
332.225
332.293
332.353
332.405
332.453
332.501
332.554
332.614
332.679
332.749
332.819
332.888
332.953
333.014
333.074
333.131
333.189
333.245
333.301
333.354
333.406
333.454
333.5
333.541
333.579
333.613
333.641
333.663
333.675
331.939
331.94
331.944
331.95
331.961
331.975
331.991
332.008
332.023
332.034
332.038
332.038
332.034
332.027
332.018
332.006
331.989
331.963
331.929
331.888
331.846
331.813
331.802
331.82
331.868
331.936
332.012
332.088
332.16
332.224
332.279
332.327
332.371
332.417
332.468
332.527
332.593
332.663
332.733
332.799
332.859
332.914
332.967
333.019
333.071
333.123
333.175
333.227
333.277
333.325
333.37
333.413
333.452
333.488
333.519
333.543
333.556
331.92
331.92
331.921
331.925
331.933
331.945
331.959
331.973
331.986
331.995
332
332
331.997
331.992
331.985
331.975
331.96
331.938
331.909
331.873
331.837
331.809
331.8
331.817
331.86
331.92
331.986
332.051
332.112
332.166
332.212
332.252
332.29
332.332
332.381
332.439
332.505
332.575
332.644
332.707
332.762
332.812
332.858
332.905
332.952
333.001
333.051
333.101
333.15
333.198
333.244
333.287
333.328
333.366
333.4
333.425
333.439
331.906
331.905
331.903
331.905
331.91
331.919
331.93
331.942
331.953
331.961
331.966
331.967
331.967
331.964
331.96
331.953
331.943
331.928
331.908
331.884
331.86
331.844
331.843
331.861
331.898
331.945
331.996
332.044
332.088
332.126
332.159
332.187
332.217
332.251
332.295
332.35
332.413
332.482
332.549
332.609
332.66
332.705
332.747
332.789
332.834
332.881
332.929
332.978
333.026
333.074
333.121
333.165
333.208
333.248
333.283
333.31
333.326
331.898
331.895
331.893
331.892
331.895
331.901
331.91
331.919
331.928
331.935
331.94
331.944
331.945
331.946
331.945
331.944
331.941
331.935
331.926
331.915
331.907
331.905
331.914
331.936
331.968
332.004
332.04
332.071
332.096
332.115
332.13
332.143
332.16
332.185
332.22
332.267
332.324
332.387
332.45
332.506
332.553
332.594
332.633
332.673
332.716
332.762
332.809
332.858
332.906
332.954
333.002
333.047
333.091
333.133
333.17
333.199
333.215
331.897
331.894
331.89
331.888
331.889
331.893
331.9
331.907
331.915
331.922
331.928
331.933
331.937
331.941
331.946
331.95
331.954
331.958
331.961
331.964
331.97
331.981
332
332.027
332.058
332.088
332.113
332.128
332.135
332.135
332.131
332.128
332.13
332.14
332.163
332.198
332.244
332.298
332.352
332.401
332.443
332.482
332.519
332.559
332.601
332.646
332.694
332.742
332.791
332.839
332.887
332.934
332.979
333.022
333.061
333.091
333.109
331.904
331.901
331.897
331.894
331.894
331.897
331.902
331.909
331.916
331.923
331.93
331.937
331.945
331.953
331.962
331.973
331.985
331.998
332.012
332.028
332.046
332.068
332.095
332.128
332.161
332.19
332.207
332.211
332.203
332.186
332.164
332.144
332.129
332.124
332.131
332.151
332.183
332.222
332.264
332.303
332.339
332.374
332.41
332.449
332.491
332.536
332.584
332.632
332.681
332.73
332.778
332.826
332.872
332.916
332.956
332.988
333.006
331.917
331.915
331.912
331.91
331.91
331.912
331.916
331.922
331.93
331.938
331.947
331.957
331.968
331.981
331.996
332.013
332.032
332.054
332.077
332.103
332.131
332.162
332.197
332.235
332.271
332.3
332.314
332.31
332.291
332.26
332.224
332.189
332.159
332.138
332.129
332.133
332.148
332.17
332.196
332.223
332.25
332.28
332.313
332.35
332.391
332.435
332.482
332.53
332.578
332.627
332.675
332.723
332.77
332.815
332.856
332.889
332.907
331.936
331.935
331.933
331.932
331.932
331.935
331.94
331.947
331.956
331.966
331.978
331.991
332.006
332.024
332.044
332.067
332.093
332.122
332.153
332.187
332.223
332.262
332.303
332.345
332.384
332.412
332.424
332.416
332.39
332.35
332.304
332.256
332.213
332.179
332.155
332.143
332.142
332.147
332.157
332.17
332.186
332.207
332.234
332.267
332.304
332.346
332.39
332.437
332.484
332.532
332.58
332.627
332.674
332.72
332.762
332.795
332.814
331.959
331.958
331.957
331.958
331.96
331.965
331.971
331.98
331.99
332.003
332.017
332.034
332.054
332.076
332.101
332.13
332.162
332.197
332.235
332.275
332.318
332.363
332.409
332.453
332.493
332.521
332.532
332.522
332.493
332.449
332.396
332.34
332.286
332.24
332.204
332.179
332.162
332.152
332.147
332.146
332.15
332.16
332.178
332.203
332.235
332.271
332.312
332.356
332.401
332.447
332.493
332.54
332.587
332.632
332.674
332.708
332.727
331.982
331.982
331.983
331.986
331.99
331.996
332.004
332.015
332.028
332.043
332.061
332.081
332.105
332.131
332.161
332.195
332.232
332.272
332.315
332.361
332.409
332.458
332.507
332.553
332.593
332.621
332.631
332.622
332.593
332.548
332.491
332.429
332.368
332.312
332.266
332.229
332.201
332.178
332.16
332.146
332.138
332.138
332.146
332.162
332.185
332.215
332.251
332.29
332.331
332.375
332.419
332.465
332.51
332.555
332.597
332.63
332.65
332.002
332.003
332.006
332.009
332.015
332.023
332.033
332.046
332.061
332.078
332.099
332.122
332.149
332.178
332.212
332.249
332.29
332.334
332.381
332.431
332.483
332.535
332.587
332.634
332.674
332.702
332.713
332.704
332.676
332.631
332.573
332.508
332.441
332.379
332.325
332.28
332.242
332.21
332.182
332.159
332.143
332.133
332.132
332.139
332.155
332.178
332.208
332.242
332.28
332.32
332.363
332.407
332.451
332.496
332.537
332.571
332.59
332.014
332.016
332.019
332.024
332.03
332.039
332.05
332.064
332.08
332.099
332.121
332.146
332.174
332.206
332.242
332.281
332.324
332.37
332.42
332.472
332.526
332.58
332.632
332.68
332.72
332.748
332.759
332.752
332.725
332.681
332.622
332.555
332.486
332.42
332.362
332.312
332.269
332.232
332.199
332.171
332.149
332.135
332.128
332.13
332.141
332.16
332.186
332.217
332.252
332.291
332.332
332.375
332.419
332.463
332.504
332.537
332.556
