# vtk DataFile Version 3.4
Image
ASCII
DATASET STRUCTURED_POINTS
DIMENSIONS 57 40 1
ORIGIN 0.000000 0.000000 0.000000
SPACING 1.000000 1.000000 1.000000
POINT_DATA 2280
SCALARS facies float 1
LOOKUP_TABLE default
332.194
332.201
332.213
332.23
332.249
332.269
332.29
332.312
332.334
332.356
332.379
332.403
332.427
332.451
332.476
332.503
332.53
332.559
332.59
332.622
332.657
332.693
332.733
332.775
332.82
332.868
332.92
332.974
333.032
333.093
333.157
333.225
333.296
333.37
333.447
333.527
333.609
333.692
333.777
333.863
333.948
334.033
334.116
334.197
334.275
334.349
334.418
334.482
334.541
334.593
334.639
334.679
334.712
334.74
334.761
334.776
334.783
332.188
332.194
332.207
332.223
332.242
332.262
332.283
332.304
332.326
332.348
332.371
332.393
332.417
332.441
332.466
332.492
332.519
332.547
332.577
332.609
332.643
332.679
332.718
332.76
332.805
332.853
332.904
332.959
333.017
333.078
333.143
333.211
333.283
333.358
333.436
333.517
333.6
333.686
333.772
333.86
333.947
334.034
334.119
334.202
334.282
334.358
334.429
334.494
334.554
334.607
334.653
334.693
334.726
334.753
334.774
334.788
334.795
332.178
332.185
332.196
332.212
332.23
332.25
332.27
332.291
332.312
332.334
332.355
332.378
332.4
332.424
332.448
332.473
332.498
332.526
332.554
332.585
332.618
332.654
332.692
332.733
332.778
332.826
332.877
332.931
332.989
333.051
333.117
333.186
333.259
333.335
333.415
333.499
333.585
333.673
333.763
333.854
333.945
334.036
334.125
334.211
334.295
334.374
334.447
334.515
334.577
334.631
334.678
334.718
334.751
334.777
334.797
334.81
334.816
332.167
332.173
332.185
332.2
332.217
332.236
332.255
332.275
332.296
332.316
332.337
332.359
332.38
332.403
332.425
332.449
332.473
332.499
332.526
332.556
332.587
332.622
332.659
332.699
332.743
332.791
332.842
332.896
332.955
333.017
333.083
333.153
333.228
333.306
333.389
333.475
333.564
333.656
333.751
333.846
333.942
334.037
334.131
334.223
334.31
334.394
334.471
334.542
334.606
334.662
334.71
334.75
334.783
334.807
334.825
334.837
334.842
332.157
332.162
332.173
332.187
332.204
332.222
332.24
332.259
332.279
332.299
332.319
332.339
332.36
332.38
332.402
332.424
332.447
332.471
332.496
332.524
332.554
332.586
332.622
332.662
332.705
332.752
332.803
332.857
332.915
332.978
333.045
333.116
333.192
333.272
333.357
333.446
333.54
333.636
333.735
333.836
333.937
334.038
334.137
334.234
334.327
334.416
334.498
334.573
334.639
334.697
334.746
334.786
334.817
334.84
334.856
334.866
334.87
332.147
332.152
332.163
332.176
332.191
332.208
332.226
332.244
332.263
332.281
332.301
332.32
332.339
332.359
332.379
332.399
332.42
332.442
332.465
332.491
332.519
332.55
332.584
332.623
332.665
332.711
332.762
332.816
332.874
332.936
333.003
333.075
333.152
333.234
333.322
333.414
333.512
333.613
333.717
333.823
333.93
334.037
334.142
334.245
334.345
334.439
334.526
334.605
334.675
334.735
334.785
334.824
334.854
334.875
334.888
334.895
334.898
332.137
332.143
332.152
332.165
332.18
332.196
332.212
332.23
332.247
332.265
332.283
332.302
332.32
332.338
332.356
332.375
332.394
332.414
332.435
332.458
332.483
332.513
332.545
332.583
332.624
332.67
332.719
332.772
332.83
332.892
332.959
333.031
333.109
333.193
333.283
333.379
333.48
333.586
333.695
333.807
333.92
334.034
334.146
334.256
334.362
334.462
334.555
334.639
334.713
334.775
334.825
334.864
334.892
334.909
334.919
334.923
334.924
332.128
332.133
332.143
332.155
332.169
332.184
332.2
332.216
332.233
332.25
332.267
332.284
332.301
332.318
332.335
332.352
332.369
332.386
332.405
332.425
332.448
332.475
332.506
332.542
332.583
332.627
332.676
332.728
332.785
332.846
332.912
332.984
333.063
333.148
333.24
333.339
333.445
333.555
333.67
333.788
333.908
334.028
334.148
334.265
334.378
334.485
334.584
334.674
334.752
334.817
334.868
334.905
334.929
334.943
334.949
334.95
334.949
332.119
332.124
332.133
332.145
332.158
332.173
332.188
332.204
332.22
332.236
332.252
332.269
332.284
332.3
332.315
332.33
332.345
332.36
332.376
332.394
332.414
332.439
332.468
332.502
332.541
332.585
332.632
332.683
332.739
332.798
332.864
332.935
333.013
333.099
333.193
333.296
333.405
333.521
333.642
333.766
333.893
334.02
334.146
334.271
334.392
334.507
334.614
334.71
334.792
334.86
334.911
334.946
334.967
334.976
334.977
334.973
334.97
332.11
332.115
332.124
332.135
332.148
332.162
332.177
332.192
332.207
332.223
332.239
332.254
332.269
332.283
332.297
332.31
332.323
332.336
332.349
332.364
332.382
332.404
332.431
332.463
332.501
332.543
332.588
332.638
332.692
332.75
332.813
332.883
332.96
333.047
333.143
333.248
333.363
333.484
333.611
333.741
333.874
334.008
334.142
334.274
334.403
334.526
334.642
334.745
334.834
334.904
334.955
334.988
335.003
335.006
335.001
334.992
334.986
332.101
332.106
332.115
332.126
332.138
332.152
332.166
332.181
332.196
332.211
332.226
332.24
332.254
332.268
332.28
332.292
332.303
332.313
332.324
332.337
332.352
332.372
332.396
332.427
332.462
332.502
332.546
332.593
332.645
332.701
332.762
332.83
332.906
332.992
333.089
333.198
333.317
333.443
333.576
333.712
333.851
333.991
334.132
334.272
334.409
334.541
334.666
334.778
334.874
334.948
334.999
335.027
335.036
335.031
335.019
335.005
334.996
332.092
332.097
332.105
332.116
332.129
332.142
332.156
332.17
332.185
332.199
332.214
332.228
332.241
332.254
332.265
332.275
332.284
332.293
332.302
332.312
332.325
332.342
332.364
332.392
332.425
332.462
332.504
332.549
332.599
332.653
332.712
332.777
332.851
332.936
333.035
333.146
333.269
333.401
333.538
333.68
333.824
333.969
334.116
334.263
334.408
334.549
334.684
334.806
334.909
334.987
335.037
335.06
335.061
335.048
335.028
335.009
334.997
332.083
332.088
332.096
332.107
332.119
332.132
332.146
332.16
332.174
332.189
332.203
332.217
332.23
332.241
332.252
332.26
332.268
332.274
332.281
332.289
332.3
332.314
332.334
332.359
332.389
332.424
332.463
332.507
332.554
332.606
332.663
332.727
332.799
332.884
332.983
333.097
333.223
333.358
333.499
333.644
333.792
333.942
334.093
334.245
334.397
334.546
334.69
334.821
334.932
335.014
335.063
335.08
335.073
335.052
335.025
335.001
334.986
332.074
332.079
332.087
332.097
332.109
332.122
332.136
332.15
332.164
332.178
332.192
332.206
332.219
332.23
332.24
332.247
332.252
332.256
332.261
332.266
332.275
332.287
332.304
332.327
332.354
332.386
332.424
332.465
332.512
332.562
332.618
332.681
332.753
332.837
332.936
333.051
333.178
333.315
333.458
333.605
333.755
333.907
334.061
334.217
334.373
334.527
334.677
334.816
334.933
335.018
335.066
335.079
335.066
335.038
335.006
334.978
334.962
332.065
332.07
332.078
332.088
332.1
332.112
332.126
332.139
332.154
332.168
332.182
332.196
332.208
332.219
332.228
332.234
332.237
332.239
332.241
332.244
332.25
332.26
332.274
332.294
332.319
332.349
332.385
332.425
332.471
332.521
332.577
332.64
332.713
332.797
332.897
333.011
333.137
333.273
333.416
333.562
333.712
333.865
334.02
334.176
334.333
334.49
334.642
334.783
334.902
334.988
335.036
335.047
335.032
335.003
334.969
334.94
334.923
332.056
332.06
332.068
332.078
332.09
332.102
332.115
332.129
332.143
332.157
332.171
332.185
332.198
332.208
332.216
332.22
332.222
332.221
332.22
332.221
332.224
332.231
332.243
332.26
332.283
332.311
332.346
332.386
332.431
332.483
332.54
332.604
332.678
332.763
332.862
332.975
333.099
333.232
333.372
333.516
333.664
333.815
333.968
334.122
334.278
334.432
334.581
334.719
334.836
334.921
334.969
334.982
334.97
334.943
334.912
334.884
334.868
332.046
332.051
332.058
332.068
332.08
332.092
332.105
332.118
332.132
332.146
332.16
332.173
332.185
332.195
332.202
332.205
332.204
332.201
332.198
332.195
332.196
332.201
332.21
332.225
332.246
332.273
332.307
332.347
332.393
332.445
332.504
332.571
332.646
332.732
332.83
332.94
333.061
333.19
333.326
333.466
333.611
333.758
333.907
334.057
334.207
334.355
334.497
334.628
334.738
334.82
334.869
334.887
334.882
334.861
334.836
334.812
334.798
332.037
332.041
332.049
332.058
332.07
332.082
332.094
332.107
332.121
332.134
332.147
332.159
332.171
332.18
332.185
332.187
332.184
332.179
332.173
332.168
332.166
332.168
332.175
332.188
332.207
332.233
332.267
332.307
332.354
332.409
332.47
332.538
332.615
332.701
332.798
332.905
333.021
333.146
333.277
333.412
333.551
333.693
333.836
333.98
334.123
334.262
334.395
334.516
334.619
334.697
334.747
334.771
334.774
334.762
334.744
334.726
334.715
332.027
332.031
332.038
332.048
332.059
332.071
332.083
332.096
332.109
332.121
332.133
332.144
332.154
332.161
332.165
332.165
332.161
332.154
332.146
332.138
332.133
332.132
332.137
332.148
332.166
332.192
332.226
332.267
332.316
332.372
332.435
332.505
332.583
332.669
332.763
332.867
332.979
333.099
333.224
333.354
333.487
333.622
333.759
333.895
334.029
334.159
334.282
334.393
334.487
334.561
334.613
334.642
334.653
334.651
334.641
334.629
334.621
332.016
332.02
332.028
332.037
332.048
332.06
332.072
332.084
332.096
332.108
332.118
332.128
332.135
332.141
332.143
332.141
332.136
332.127
332.116
332.105
332.097
332.093
332.096
332.106
332.123
332.149
332.183
332.226
332.277
332.335
332.4
332.471
332.549
332.634
332.726
332.826
332.934
333.048
333.167
333.291
333.418
333.546
333.675
333.803
333.928
334.048
334.161
334.263
334.351
334.421
334.473
334.507
334.525
334.531
334.529
334.523
334.519
332.005
332.009
332.017
332.026
332.037
332.048
332.06
332.072
332.084
332.094
332.103
332.11
332.115
332.118
332.118
332.115
332.108
332.097
332.083
332.069
332.057
332.051
332.051
332.06
332.078
332.105
332.14
332.185
332.238
332.298
332.364
332.436
332.513
332.597
332.686
332.783
332.885
332.994
333.108
333.225
333.345
333.466
333.587
333.707
333.823
333.934
334.038
334.132
334.214
334.281
334.333
334.37
334.394
334.406
334.411
334.411
334.41
331.994
331.998
332.005
332.014
332.025
332.037
332.049
332.06
332.071
332.08
332.087
332.092
332.094
332.094
332.092
332.087
332.077
332.064
332.046
332.028
332.013
332.003
332.002
332.011
332.03
332.058
332.097
332.144
332.2
332.262
332.329
332.401
332.477
332.558
332.645
332.737
332.835
332.938
333.046
333.157
333.27
333.383
333.496
333.607
333.715
333.818
333.914
334.001
334.078
334.142
334.194
334.234
334.262
334.28
334.29
334.295
334.296
331.983
331.986
331.993
332.002
332.013
332.024
332.037
332.048
332.059
332.066
332.071
332.073
332.073
332.07
332.064
332.056
332.043
332.026
332.004
331.982
331.962
331.949
331.947
331.957
331.978
332.01
332.052
332.103
332.162
332.226
332.295
332.367
332.442
332.52
332.602
332.69
332.782
332.88
332.982
333.087
333.193
333.299
333.404
333.507
333.606
333.701
333.79
333.871
333.943
334.005
334.057
334.098
334.13
334.152
334.167
334.176
334.181
331.97
331.974
331.98
331.989
331.999
332.011
332.024
332.036
332.046
332.053
332.056
332.055
332.05
332.044
332.034
332.022
332.005
331.983
331.956
331.928
331.903
331.888
331.885
331.897
331.921
331.958
332.006
332.062
332.125
332.193
332.262
332.334
332.406
332.481
332.559
332.642
332.73
332.822
332.918
333.016
333.115
333.213
333.31
333.405
333.497
333.585
333.667
333.743
333.811
333.871
333.922
333.964
333.999
334.025
334.044
334.057
334.063
331.958
331.961
331.966
331.975
331.985
331.997
332.01
332.023
332.033
332.039
332.039
332.035
332.027
332.017
332.003
331.986
331.964
331.936
331.903
331.868
331.838
331.818
331.815
331.828
331.858
331.902
331.957
332.02
332.089
332.161
332.232
332.302
332.372
332.443
332.517
332.594
332.677
332.764
332.854
332.945
333.037
333.127
333.217
333.304
333.388
333.469
333.545
333.616
333.681
333.739
333.79
333.833
333.869
333.899
333.921
333.937
333.945
331.945
331.947
331.952
331.96
331.97
331.982
331.995
332.007
332.017
332.023
332.022
332.015
332.004
331.989
331.972
331.95
331.923
331.889
331.85
331.807
331.769
331.742
331.736
331.751
331.788
331.842
331.907
331.98
332.055
332.131
332.203
332.272
332.338
332.405
332.473
332.546
332.624
332.705
332.79
332.874
332.959
333.042
333.124
333.203
333.28
333.355
333.426
333.492
333.554
333.61
333.66
333.704
333.742
333.774
333.799
333.818
333.828
331.931
331.933
331.937
331.944
331.953
331.964
331.977
331.989
331.999
332.003
332.001
331.993
331.98
331.963
331.942
331.918
331.887
331.848
331.802
331.752
331.704
331.669
331.656
331.673
331.717
331.782
331.86
331.942
332.025
332.104
332.176
332.242
332.304
332.365
332.428
332.496
332.57
332.647
332.726
332.804
332.882
332.957
333.031
333.103
333.173
333.242
333.307
333.37
333.429
333.483
333.532
333.577
333.616
333.651
333.679
333.7
333.711
331.919
331.92
331.922
331.927
331.935
331.945
331.957
331.968
331.977
331.981
331.978
331.969
331.956
331.938
331.917
331.892
331.859
331.819
331.77
331.714
331.658
331.614
331.596
331.612
331.662
331.737
331.825
331.914
332.001
332.08
332.149
332.21
332.266
332.321
332.38
332.444
332.514
332.587
332.661
332.735
332.805
332.873
332.939
333.003
333.067
333.13
333.191
333.25
333.306
333.359
333.408
333.453
333.494
333.53
333.561
333.584
333.596
331.907
331.907
331.908
331.911
331.917
331.925
331.935
331.946
331.953
331.956
331.954
331.946
331.934
331.918
331.899
331.875
331.844
331.806
331.758
331.703
331.646
331.6
331.579
331.594
331.646
331.724
331.813
331.903
331.986
332.059
332.122
332.176
332.225
332.274
332.328
332.388
332.455
332.525
332.596
332.664
332.728
332.788
332.846
332.904
332.961
333.019
333.076
333.132
333.186
333.238
333.286
333.332
333.374
333.412
333.444
333.469
333.483
331.898
331.897
331.896
331.897
331.901
331.907
331.916
331.924
331.93
331.933
331.932
331.926
331.916
331.904
331.888
331.868
331.843
331.811
331.771
331.724
331.675
331.636
331.619
331.634
331.682
331.753
331.834
331.913
331.985
332.046
332.098
332.142
332.182
332.225
332.273
332.329
332.392
332.46
332.527
332.59
332.648
332.701
332.752
332.804
332.856
332.909
332.963
333.016
333.069
333.119
333.168
333.214
333.257
333.296
333.331
333.358
333.373
331.893
331.891
331.888
331.887
331.889
331.894
331.9
331.907
331.912
331.915
331.915
331.912
331.905
331.897
331.887
331.873
331.856
331.834
331.807
331.774
331.741
331.716
331.708
331.725
331.765
331.822
331.886
331.947
332.001
332.045
332.082
332.112
332.142
332.176
332.217
332.268
332.327
332.39
332.454
332.512
332.564
332.611
332.656
332.703
332.751
332.801
332.852
332.903
332.955
333.005
333.053
333.099
333.143
333.184
333.221
333.249
333.265
331.894
331.891
331.887
331.884
331.884
331.887
331.892
331.898
331.902
331.906
331.907
331.906
331.904
331.901
331.896
331.891
331.883
331.873
331.86
331.845
331.83
331.822
331.825
331.844
331.877
331.918
331.962
332.002
332.035
332.06
332.079
332.095
332.112
332.135
332.167
332.209
332.261
332.318
332.375
332.428
332.475
332.517
332.559
332.601
332.647
332.694
332.744
332.794
332.844
332.893
332.942
332.989
333.034
333.076
333.114
333.143
333.16
331.901
331.898
331.894
331.89
331.889
331.891
331.894
331.899
331.903
331.907
331.91
331.912
331.914
331.916
331.919
331.921
331.924
331.926
331.927
331.928
331.929
331.935
331.949
331.97
331.997
332.027
332.054
332.075
332.089
332.094
332.095
332.094
332.097
332.107
332.128
332.159
332.2
332.248
332.297
332.342
332.384
332.422
332.461
332.501
332.545
332.591
332.639
332.688
332.738
332.787
332.835
332.882
332.928
332.971
333.01
333.041
333.058
331.915
331.912
331.908
331.905
331.903
331.904
331.907
331.911
331.916
331.921
331.926
331.932
331.938
331.946
331.955
331.965
331.977
331.989
332.003
332.016
332.031
332.048
332.068
332.092
332.117
332.139
332.154
332.161
332.158
332.147
332.131
332.115
332.103
332.099
332.106
332.124
332.152
332.188
332.226
332.262
332.297
332.331
332.367
332.406
332.448
332.493
332.54
332.588
332.637
332.685
332.734
332.781
332.827
332.871
332.911
332.943
332.961
331.936
331.933
331.93
331.927
331.926
331.927
331.93
331.935
331.941
331.948
331.956
331.965
331.976
331.989
332.004
332.021
332.04
332.062
332.085
332.108
332.132
332.157
332.183
332.209
332.233
332.251
332.259
332.256
332.241
332.217
332.187
332.157
332.13
332.112
332.105
332.11
332.125
332.146
332.171
332.196
332.223
332.251
332.283
332.319
332.359
332.402
332.447
332.494
332.542
332.59
332.638
332.685
332.731
332.776
332.817
332.849
332.867
331.96
331.959
331.957
331.956
331.956
331.958
331.963
331.969
331.976
331.986
331.997
332.01
332.025
332.043
332.063
332.087
332.113
332.141
332.171
332.202
332.233
332.264
332.294
332.323
332.347
332.362
332.367
332.357
332.334
332.3
332.259
332.216
332.177
332.147
332.127
332.119
332.12
332.128
332.139
332.153
332.169
332.19
332.216
332.247
332.282
332.322
332.365
332.41
332.456
332.502
332.549
332.596
332.642
332.686
332.727
332.76
332.779
331.988
331.988
331.987
331.988
331.99
331.994
332
332.009
332.019
332.031
332.045
332.062
332.082
332.104
332.13
332.158
332.19
332.223
332.259
332.295
332.332
332.368
332.402
332.433
332.457
332.472
332.474
332.461
332.434
332.393
332.344
332.291
332.241
332.199
332.168
332.149
332.139
332.134
332.133
332.134
332.14
332.151
332.168
332.192
332.221
332.256
332.295
332.336
332.379
332.423
332.468
332.514
332.559
332.603
332.645
332.678
332.696
332.016
332.017
332.018
332.021
332.025
332.031
332.039
332.05
332.063
332.078
332.095
332.116
332.139
332.166
332.196
332.229
332.264
332.303
332.343
332.384
332.425
332.464
332.502
332.535
332.56
332.576
332.577
332.563
332.533
332.489
332.434
332.374
332.315
332.263
332.223
332.194
332.174
332.159
332.146
332.137
332.133
332.134
332.141
332.156
332.178
332.206
332.239
332.276
332.315
332.357
332.399
332.443
332.487
332.531
332.572
332.605
332.623
332.04
332.042
332.044
332.048
332.054
332.062
332.073
332.085
332.1
332.118
332.138
332.161
332.188
332.218
332.251
332.287
332.326
332.368
332.411
332.455
332.5
332.543
332.583
332.618
332.645
332.661
332.663
332.649
332.618
332.572
332.514
332.449
332.383
332.325
332.277
332.241
332.212
332.189
332.169
332.152
332.139
332.131
332.13
332.137
332.151
332.173
332.2
332.232
332.268
332.306
332.347
332.389
332.432
332.475
332.515
332.548
332.567
332.054
332.056
332.059
332.064
332.072
332.081
332.092
332.106
332.122
332.141
332.163
332.188
332.216
332.248
332.283
332.321
332.362
332.405
332.45
332.497
332.543
332.588
332.629
332.665
332.694
332.71
332.713
332.7
332.669
332.622
332.562
332.494
332.426
332.363
332.312
332.271
332.238
332.21
332.185
332.163
332.146
332.134
332.128
332.13
332.14
332.157
332.181
332.21
332.243
332.279
332.318
332.359
332.402
332.444
332.484
332.516
332.535
