# vtk DataFile Version 3.4
Image
ASCII
DATASET STRUCTURED_POINTS
DIMENSIONS 57 40 1
ORIGIN 0.000000 0.000000 0.000000
SPACING 1.000000 1.000000 1.000000
POINT_DATA 2280
SCALARS facies float 1
LOOKUP_TABLE default
332.344
332.352
332.367
332.386
332.408
332.432
332.456
332.481
332.506
332.532
332.558
332.585
332.612
332.639
332.668
332.697
332.727
332.758
332.791
332.825
332.861
332.9
332.94
332.983
333.028
333.076
333.127
333.181
333.238
333.298
333.361
333.428
333.497
333.57
333.646
333.724
333.805
333.888
333.972
334.056
334.141
334.225
334.307
334.387
334.464
334.538
334.606
334.669
334.727
334.778
334.823
334.862
334.895
334.921
334.941
334.954
334.962
332.337
332.345
332.36
332.379
332.401
332.424
332.448
332.473
332.498
332.523
332.549
332.575
332.602
332.629
332.657
332.686
332.716
332.747
332.779
332.813
332.848
332.886
332.926
332.968
333.013
333.061
333.112
333.166
333.223
333.283
333.347
333.414
333.484
333.558
333.635
333.714
333.796
333.881
333.966
334.053
334.14
334.226
334.31
334.392
334.471
334.546
334.616
334.681
334.739
334.792
334.837
334.876
334.908
334.934
334.953
334.966
334.973
332.326
332.334
332.348
332.367
332.388
332.411
332.435
332.459
332.484
332.509
332.534
332.56
332.586
332.612
332.639
332.667
332.696
332.726
332.757
332.79
332.825
332.862
332.901
332.943
332.987
333.035
333.085
333.139
333.196
333.257
333.321
333.388
333.46
333.535
333.614
333.696
333.78
333.868
333.956
334.046
334.137
334.226
334.315
334.4
334.483
334.561
334.634
334.701
334.762
334.815
334.862
334.9
334.932
334.957
334.975
334.987
334.993
332.313
332.321
332.335
332.353
332.374
332.396
332.419
332.442
332.466
332.491
332.515
332.54
332.565
332.591
332.617
332.644
332.672
332.7
332.73
332.762
332.795
332.831
332.869
332.91
332.954
333.001
333.051
333.105
333.162
333.223
333.287
333.356
333.428
333.505
333.586
333.671
333.759
333.85
333.943
334.037
334.132
334.227
334.32
334.41
334.498
334.58
334.657
334.727
334.79
334.846
334.893
334.932
334.963
334.986
335.003
335.013
335.018
332.301
332.308
332.322
332.339
332.359
332.38
332.402
332.425
332.448
332.472
332.496
332.52
332.544
332.569
332.594
332.62
332.646
332.673
332.701
332.731
332.763
332.798
332.835
332.875
332.918
332.964
333.014
333.067
333.124
333.184
333.249
333.318
333.392
333.471
333.554
333.642
333.733
333.828
333.926
334.025
334.126
334.226
334.325
334.421
334.513
334.601
334.682
334.757
334.823
334.88
334.928
334.967
334.996
335.018
335.033
335.041
335.045
332.289
332.296
332.309
332.326
332.345
332.365
332.387
332.409
332.431
332.454
332.477
332.5
332.524
332.547
332.571
332.595
332.62
332.646
332.672
332.7
332.73
332.763
332.799
332.838
332.88
332.925
332.974
333.026
333.083
333.143
333.208
333.277
333.352
333.432
333.518
333.608
333.704
333.803
333.906
334.011
334.117
334.223
334.328
334.431
334.529
334.623
334.709
334.788
334.857
334.916
334.965
335.003
335.032
335.051
335.063
335.069
335.071
332.277
332.284
332.297
332.313
332.331
332.351
332.372
332.393
332.415
332.437
332.459
332.481
332.504
332.526
332.549
332.572
332.595
332.619
332.643
332.669
332.697
332.728
332.762
332.8
332.841
332.885
332.933
332.985
333.04
333.099
333.164
333.233
333.308
333.39
333.477
333.571
333.671
333.775
333.883
333.994
334.106
334.219
334.33
334.44
334.545
334.645
334.737
334.82
334.894
334.955
335.004
335.042
335.068
335.084
335.093
335.096
335.096
332.266
332.272
332.285
332.3
332.318
332.337
332.357
332.378
332.399
332.421
332.442
332.464
332.485
332.507
332.528
332.549
332.571
332.592
332.615
332.639
332.665
332.693
332.726
332.762
332.802
332.845
332.891
332.942
332.996
333.054
333.117
333.186
333.261
333.344
333.433
333.53
333.634
333.743
333.856
333.973
334.092
334.211
334.33
334.447
334.559
334.666
334.765
334.854
334.932
334.995
335.045
335.081
335.105
335.117
335.121
335.121
335.119
332.254
332.261
332.273
332.288
332.305
332.324
332.344
332.364
332.384
332.405
332.426
332.447
332.468
332.488
332.508
332.528
332.548
332.568
332.588
332.61
332.633
332.66
332.69
332.724
332.763
332.804
332.85
332.898
332.95
333.007
333.068
333.136
333.211
333.293
333.385
333.485
333.592
333.707
333.826
333.949
334.074
334.201
334.327
334.451
334.572
334.686
334.793
334.889
334.971
335.038
335.088
335.122
335.141
335.148
335.147
335.142
335.138
332.243
332.249
332.261
332.276
332.293
332.311
332.33
332.35
332.37
332.39
332.411
332.431
332.451
332.471
332.49
332.508
332.527
332.545
332.563
332.582
332.603
332.628
332.656
332.689
332.725
332.765
332.808
332.854
332.905
332.959
333.018
333.084
333.157
333.24
333.332
333.435
333.547
333.667
333.792
333.921
334.053
334.186
334.32
334.452
334.581
334.704
334.819
334.923
335.011
335.081
335.131
335.162
335.176
335.177
335.17
335.16
335.153
332.231
332.237
332.249
332.264
332.28
332.298
332.317
332.337
332.357
332.377
332.397
332.417
332.436
332.455
332.473
332.49
332.507
332.523
332.54
332.557
332.576
332.598
332.625
332.655
332.689
332.727
332.768
332.812
332.859
332.911
332.967
333.03
333.101
333.183
333.277
333.383
333.499
333.624
333.755
333.89
334.028
334.167
334.308
334.447
334.584
334.717
334.842
334.954
335.049
335.123
335.172
335.199
335.207
335.2
335.186
335.17
335.16
332.219
332.225
332.237
332.251
332.268
332.286
332.305
332.324
332.343
332.363
332.383
332.403
332.422
332.44
332.458
332.474
332.49
332.504
332.519
332.535
332.552
332.572
332.596
332.623
332.655
332.69
332.728
332.77
332.815
332.864
332.917
332.977
333.046
333.126
333.221
333.329
333.449
333.579
333.714
333.854
333.997
334.143
334.289
334.436
334.581
334.722
334.857
334.979
335.082
335.16
335.209
335.23
335.23
335.215
335.193
335.171
335.158
332.207
332.213
332.224
332.239
332.256
332.273
332.292
332.311
332.331
332.35
332.37
332.39
332.409
332.427
332.444
332.459
332.474
332.487
332.5
332.514
332.529
332.548
332.569
332.594
332.623
332.655
332.691
332.73
332.772
332.818
332.869
332.927
332.993
333.073
333.167
333.277
333.4
333.533
333.672
333.815
333.962
334.112
334.263
334.415
334.567
334.716
334.86
334.992
335.103
335.185
335.233
335.248
335.24
335.216
335.187
335.161
335.145
332.194
332.201
332.212
332.227
332.243
332.261
332.279
332.298
332.318
332.338
332.358
332.378
332.397
332.415
332.431
332.446
332.459
332.471
332.483
332.495
332.509
332.525
332.544
332.566
332.592
332.622
332.655
332.692
332.732
332.776
332.826
332.881
332.947
333.025
333.119
333.229
333.353
333.487
333.628
333.773
333.922
334.073
334.227
334.383
334.539
334.694
334.845
334.984
335.101
335.186
335.233
335.244
335.229
335.199
335.165
335.135
335.118
332.182
332.188
332.199
332.214
332.23
332.248
332.266
332.286
332.305
332.325
332.346
332.366
332.385
332.403
332.419
332.433
332.445
332.456
332.466
332.477
332.489
332.503
332.519
332.539
332.563
332.59
332.62
332.655
332.694
332.738
332.786
332.842
332.907
332.985
333.078
333.187
333.31
333.443
333.583
333.727
333.876
334.027
334.182
334.338
334.496
334.653
334.806
334.947
335.067
335.153
335.199
335.209
335.192
335.16
335.124
335.093
335.075
332.169
332.175
332.186
332.201
332.217
332.235
332.253
332.273
332.292
332.312
332.333
332.353
332.373
332.391
332.407
332.421
332.432
332.441
332.449
332.458
332.469
332.481
332.495
332.513
332.534
332.558
332.587
332.62
332.658
332.702
332.751
332.807
332.872
332.95
333.043
333.149
333.269
333.399
333.535
333.678
333.824
333.973
334.126
334.28
334.435
334.59
334.74
334.879
334.996
335.081
335.128
335.139
335.125
335.096
335.063
335.033
335.016
332.155
332.161
332.173
332.187
332.204
332.221
332.24
332.259
332.279
332.299
332.319
332.34
332.359
332.377
332.393
332.406
332.417
332.425
332.432
332.44
332.449
332.459
332.471
332.487
332.505
332.527
332.554
332.587
332.624
332.668
332.718
332.775
332.841
332.919
333.01
333.113
333.228
333.353
333.485
333.623
333.766
333.911
334.059
334.209
334.359
334.508
334.65
334.782
334.893
334.974
335.023
335.039
335.032
335.01
334.982
334.957
334.942
332.141
332.147
332.159
332.173
332.19
332.207
332.226
332.245
332.265
332.285
332.305
332.325
332.344
332.362
332.377
332.39
332.4
332.407
332.414
332.421
332.428
332.437
332.448
332.461
332.477
332.497
332.523
332.554
332.591
332.635
332.686
332.744
332.811
332.888
332.976
333.076
333.186
333.305
333.432
333.565
333.701
333.842
333.984
334.127
334.27
334.409
334.543
334.664
334.767
334.845
334.894
334.917
334.918
334.905
334.885
334.866
334.854
332.127
332.133
332.144
332.159
332.175
332.193
332.211
332.23
332.25
332.269
332.289
332.308
332.326
332.344
332.359
332.371
332.381
332.388
332.395
332.401
332.408
332.415
332.424
332.436
332.45
332.468
332.492
332.522
332.559
332.604
332.655
332.713
332.779
332.855
332.94
333.035
333.14
333.254
333.374
333.501
333.631
333.765
333.9
334.036
334.17
334.3
334.423
334.534
334.629
334.702
334.753
334.782
334.791
334.788
334.776
334.764
334.755
332.112
332.118
332.129
332.143
332.16
332.178
332.196
332.215
332.234
332.253
332.272
332.29
332.307
332.323
332.337
332.349
332.359
332.368
332.374
332.381
332.387
332.394
332.402
332.412
332.424
332.441
332.463
332.492
332.529
332.573
332.624
332.681
332.746
332.819
332.9
332.991
333.09
333.198
333.313
333.433
333.557
333.683
333.811
333.938
334.062
334.183
334.296
334.398
334.485
334.556
334.607
334.64
334.657
334.662
334.659
334.652
334.647
332.096
332.102
332.113
332.127
332.144
332.162
332.18
332.199
332.218
332.236
332.254
332.27
332.286
332.301
332.314
332.326
332.336
332.345
332.353
332.359
332.366
332.372
332.38
332.389
332.4
332.416
332.437
332.465
332.5
332.543
332.593
332.648
332.71
332.78
332.857
332.942
333.036
333.138
333.247
333.36
333.477
333.596
333.716
333.835
333.95
334.061
334.165
334.259
334.341
334.408
334.46
334.497
334.52
334.531
334.535
334.534
334.533
332.079
332.085
332.096
332.11
332.127
332.145
332.164
332.183
332.202
332.219
332.235
332.25
332.264
332.276
332.289
332.3
332.311
332.321
332.329
332.336
332.344
332.351
332.359
332.368
332.379
332.394
332.413
332.44
332.474
332.515
332.562
332.615
332.673
332.738
332.811
332.891
332.979
333.076
333.178
333.285
333.395
333.507
333.618
333.728
333.835
333.938
334.034
334.121
334.198
334.262
334.314
334.353
334.381
334.398
334.408
334.412
334.414
332.062
332.067
332.078
332.092
332.109
332.127
332.147
332.166
332.185
332.201
332.216
332.228
332.24
332.25
332.261
332.272
332.283
332.293
332.303
332.312
332.32
332.329
332.339
332.348
332.36
332.374
332.393
332.418
332.449
332.488
332.532
332.581
332.635
332.695
332.763
332.837
332.92
333.011
333.107
333.208
333.311
333.415
333.518
333.62
333.719
333.814
333.903
333.984
334.056
334.119
334.17
334.211
334.242
334.265
334.279
334.288
334.292
332.043
332.049
332.059
332.073
332.09
332.108
332.128
332.148
332.167
332.183
332.195
332.205
332.214
332.222
332.231
332.24
332.251
332.262
332.272
332.283
332.295
332.306
332.318
332.329
332.341
332.355
332.372
332.395
332.425
332.46
332.501
332.546
332.596
332.651
332.713
332.782
332.86
332.944
333.035
333.129
333.225
333.321
333.417
333.511
333.603
333.69
333.773
333.848
333.917
333.977
334.028
334.071
334.105
334.131
334.15
334.163
334.169
332.024
332.029
332.039
332.052
332.069
332.088
332.108
332.128
332.147
332.162
332.173
332.18
332.186
332.191
332.197
332.204
332.214
332.225
332.238
332.251
332.266
332.281
332.296
332.309
332.321
332.334
332.35
332.371
332.398
332.431
332.468
332.509
332.554
332.604
332.661
332.726
332.798
332.878
332.962
333.05
333.139
333.228
333.316
333.403
333.487
333.567
333.644
333.715
333.78
333.838
333.889
333.933
333.969
333.999
334.021
334.037
334.045
332.004
332.008
332.017
332.03
332.045
332.064
332.085
332.106
332.124
332.139
332.148
332.152
332.154
332.156
332.159
332.165
332.173
332.184
332.198
332.215
332.233
332.253
332.271
332.286
332.299
332.31
332.323
332.342
332.367
332.398
332.432
332.469
332.509
332.555
332.607
332.667
332.735
332.81
332.889
332.971
333.053
333.135
333.215
333.294
333.371
333.446
333.517
333.583
333.645
333.702
333.752
333.797
333.835
333.867
333.893
333.912
333.922
331.983
331.987
331.994
332.005
332.02
332.038
332.058
332.078
332.096
332.11
332.117
332.12
332.119
332.119
332.119
332.123
332.13
332.141
332.156
332.174
332.196
332.219
332.241
332.257
332.269
332.278
332.29
332.306
332.33
332.358
332.39
332.423
332.459
332.5
332.548
332.605
332.67
332.741
332.816
332.892
332.968
333.042
333.115
333.187
333.257
333.325
333.391
333.454
333.513
333.568
333.619
333.664
333.704
333.738
333.767
333.788
333.8
331.962
331.965
331.971
331.98
331.993
332.009
332.028
332.047
332.064
332.076
332.082
332.083
332.081
332.079
332.079
332.081
332.086
332.096
332.111
332.131
332.155
332.18
332.203
332.22
332.231
332.239
332.248
332.263
332.284
332.311
332.34
332.37
332.402
332.439
332.485
332.539
332.602
332.671
332.742
332.814
332.883
332.95
333.015
333.079
333.143
333.206
333.268
333.327
333.384
333.438
333.487
333.533
333.575
333.612
333.643
333.666
333.679
331.943
331.944
331.948
331.955
331.965
331.979
331.996
332.013
332.027
332.038
332.044
332.045
332.043
332.041
332.039
332.04
332.045
332.054
332.068
332.087
332.111
332.135
332.158
332.175
332.186
332.193
332.201
332.213
332.233
332.257
332.283
332.309
332.338
332.372
332.415
332.468
332.53
332.598
332.667
332.734
332.797
332.857
332.915
332.972
333.03
333.088
333.146
333.202
333.257
333.31
333.359
333.406
333.449
333.488
333.521
333.547
333.561
331.926
331.926
331.927
331.931
331.939
331.951
331.964
331.979
331.991
332
332.006
332.007
332.007
332.005
332.004
332.005
332.009
332.017
332.03
332.048
332.069
332.091
332.112
332.128
332.141
332.149
332.156
332.167
332.182
332.202
332.223
332.245
332.27
332.302
332.342
332.394
332.455
332.521
332.588
332.651
332.709
332.762
332.813
332.864
332.917
332.971
333.025
333.08
333.133
333.185
333.235
333.282
333.326
333.366
333.402
333.429
333.445
331.912
331.911
331.91
331.912
331.917
331.926
331.937
331.949
331.959
331.967
331.973
331.975
331.976
331.976
331.976
331.978
331.983
331.99
332.002
332.018
332.036
332.056
332.075
332.093
332.108
332.119
332.127
332.136
332.146
332.159
332.172
332.188
332.207
332.233
332.27
332.318
332.376
332.44
332.504
332.564
332.616
332.663
332.709
332.756
332.804
332.855
332.907
332.96
333.013
333.064
333.114
333.161
333.207
333.249
333.286
333.315
333.331
331.905
331.903
331.9
331.9
331.903
331.909
331.918
331.927
331.936
331.943
331.948
331.952
331.954
331.956
331.959
331.963
331.969
331.978
331.99
332.005
332.022
332.041
332.061
332.082
332.102
332.118
332.129
332.134
332.137
332.14
332.143
332.148
332.157
332.176
332.206
332.247
332.299
332.358
332.417
332.471
332.518
332.561
332.603
332.647
332.693
332.742
332.792
332.844
332.896
332.947
332.997
333.045
333.091
333.135
333.174
333.204
333.221
331.905
331.902
331.899
331.897
331.898
331.902
331.908
331.916
331.923
331.93
331.936
331.941
331.945
331.95
331.956
331.963
331.972
331.983
331.997
332.014
332.033
332.054
332.079
332.106
332.133
332.155
332.167
332.17
332.164
332.154
332.143
332.134
332.132
332.139
332.157
332.188
332.23
332.279
332.33
332.377
332.419
332.458
332.498
332.539
332.584
332.632
332.681
332.732
332.783
332.834
332.884
332.933
332.98
333.025
333.065
333.097
333.115
331.912
331.909
331.906
331.903
331.903
331.906
331.911
331.917
331.924
331.931
331.938
331.944
331.952
331.96
331.969
331.98
331.993
332.009
332.027
332.048
332.071
332.098
332.129
332.163
332.198
332.226
332.24
332.239
332.224
332.201
332.175
332.151
332.134
332.127
332.131
332.149
332.177
332.213
332.252
332.289
332.325
332.36
332.397
332.437
332.481
332.527
332.576
332.626
332.677
332.727
332.777
332.826
332.874
332.92
332.961
332.994
333.013
331.925
331.923
331.92
331.918
331.918
331.92
331.925
331.931
331.938
331.945
331.954
331.963
331.973
331.985
331.999
332.015
332.033
332.054
332.078
332.104
332.134
332.168
332.206
332.248
332.288
332.32
332.336
332.331
332.308
332.273
332.233
332.196
332.164
332.142
332.132
332.134
332.147
332.168
332.193
332.218
332.245
332.274
332.307
332.344
332.386
332.431
332.478
332.527
332.577
332.627
332.677
332.726
332.774
332.82
332.862
332.896
332.915
331.944
331.942
331.941
331.94
331.94
331.943
331.948
331.955
331.963
331.972
331.983
331.995
332.009
332.025
332.044
332.065
332.088
332.115
332.145
332.178
332.215
332.255
332.3
332.347
332.391
332.425
332.44
332.432
332.404
332.361
332.312
332.262
332.218
332.182
332.158
332.146
332.145
332.15
332.159
332.171
332.187
332.208
332.234
332.267
332.304
332.346
332.391
332.438
332.486
332.534
332.583
332.632
332.679
332.726
332.769
332.803
332.822
331.966
331.965
331.965
331.966
331.968
331.972
331.978
331.986
331.996
332.008
332.021
332.037
332.055
332.075
332.098
332.124
332.154
332.186
332.222
332.262
332.305
332.351
332.4
332.45
332.495
332.529
332.543
332.535
332.504
332.458
332.402
332.344
332.289
332.242
332.206
332.181
332.166
332.157
332.152
332.151
332.155
332.166
332.183
332.208
332.239
332.275
332.316
332.359
332.405
332.451
332.498
332.546
332.593
332.639
332.682
332.716
332.736
331.989
331.989
331.99
331.993
331.996
332.002
332.01
332.02
332.032
332.047
332.063
332.082
332.104
332.128
332.156
332.187
332.221
332.259
332.3
332.345
332.393
332.444
332.496
332.547
332.592
332.625
332.639
332.631
332.601
332.554
332.495
332.431
332.368
332.312
332.266
332.231
332.204
332.183
332.166
332.154
332.147
332.147
332.154
332.169
332.192
332.222
332.257
332.295
332.337
332.38
332.425
332.471
332.517
332.563
332.605
332.639
332.659
332.009
332.01
332.012
332.016
332.021
332.029
332.038
332.05
332.064
332.081
332.1
332.122
332.146
332.174
332.205
332.24
332.278
332.32
332.366
332.415
332.467
332.521
332.575
332.627
332.671
332.703
332.717
332.71
332.682
332.635
332.575
332.508
332.44
332.377
332.324
332.281
332.245
332.215
332.189
332.168
332.152
332.143
332.142
332.148
332.163
332.186
332.215
332.249
332.287
332.328
332.37
332.414
332.459
332.504
332.546
332.58
332.599
332.021
332.022
332.025
332.03
332.036
332.045
332.055
332.068
332.083
332.101
332.122
332.145
332.171
332.201
332.234
332.271
332.312
332.356
332.404
332.455
332.509
332.565
332.62
332.672
332.716
332.748
332.762
332.756
332.729
332.683
332.623
332.554
332.483
332.417
332.36
332.312
332.272
332.237
332.206
332.18
332.159
332.145
332.138
332.14
332.15
332.169
332.194
332.225
332.26
332.299
332.34
332.383
332.427
332.471
332.513
332.547
332.566
