# vtk DataFile Version 3.4
Image
ASCII
DATASET STRUCTURED_POINTS
DIMENSIONS 57 40 1
ORIGIN 0.000000 0.000000 0.000000
SPACING 1.000000 1.000000 1.000000
POINT_DATA 2280
SCALARS facies float 1
LOOKUP_TABLE default
1.015227e+02
1.014977e+02
1.014727e+02
1.014477e+02
1.014227e+02
1.013977e+02
1.013727e+02
1.013477e+02
1.013227e+02
1.012977e+02
1.012727e+02
1.012477e+02
1.012227e+02
1.011977e+02
1.011727e+02
1.011477e+02
1.011227e+02
1.010977e+02
1.010727e+02
1.010477e+02
1.010227e+02
1.009977e+02
1.009727e+02
1.009477e+02
1.009227e+02
1.008977e+02
1.008727e+02
1.008477e+02
1.008227e+02
1.007977e+02
1.007727e+02
1.007477e+02
1.007227e+02
1.006977e+02
1.006727e+02
1.006477e+02
1.006227e+02
1.005977e+02
1.005727e+02
1.005477e+02
1.005227e+02
1.004977e+02
1.004727e+02
1.004477e+02
1.004227e+02
1.003977e+02
1.003727e+02
1.003477e+02
1.003227e+02
1.002977e+02
1.002727e+02
1.002477e+02
1.002227e+02
1.001977e+02
1.001727e+02
1.001477e+02
1.001227e+02
1.014794e+02
1.014544e+02
1.014294e+02
1.014044e+02
1.013794e+02
1.013544e+02
1.013294e+02
1.013044e+02
1.012794e+02
1.012544e+02
1.012294e+02
1.012044e+02
1.011794e+02
1.011544e+02
1.011294e+02
1.011044e+02
1.010794e+02
1.010544e+02
1.010294e+02
1.010044e+02
1.009794e+02
1.009544e+02
1.009294e+02
1.009044e+02
1.008794e+02
1.008544e+02
1.008294e+02
1.008044e+02
1.007794e+02
1.007544e+02
1.007294e+02
1.007044e+02
1.006794e+02
1.006544e+02
1.006294e+02
1.006044e+02
1.005794e+02
1.005544e+02
1.005294e+02
1.005044e+02
1.004794e+02
1.004544e+02
1.004294e+02
1.004044e+02
1.003794e+02
1.003544e+02
1.003294e+02
1.003044e+02
1.002794e+02
1.002544e+02
1.002294e+02
1.002044e+02
1.001794e+02
1.001544e+02
1.001294e+02
1.001044e+02
1.000794e+02
1.014361e+02
1.014111e+02
1.013861e+02
1.013611e+02
1.013361e+02
1.013111e+02
1.012861e+02
1.012611e+02
1.012361e+02
1.012111e+02
1.011861e+02
1.011611e+02
1.011361e+02
1.011111e+02
1.010861e+02
1.010611e+02
1.010361e+02
1.010111e+02
1.009861e+02
1.009611e+02
1.009361e+02
1.009111e+02
1.008861e+02
1.008611e+02
1.008361e+02
1.008111e+02
1.007861e+02
1.007611e+02
1.007361e+02
1.007111e+02
1.006861e+02
1.006611e+02
1.006361e+02
1.006111e+02
1.005861e+02
1.005611e+02
1.005361e+02
1.005111e+02
1.004861e+02
1.004611e+02
1.004361e+02
1.004111e+02
1.003861e+02
1.003611e+02
1.003361e+02
1.003111e+02
1.002861e+02
1.002611e+02
1.002361e+02
1.002111e+02
1.001861e+02
1.001611e+02
1.001361e+02
1.001111e+02
1.000861e+02
1.000611e+02
1.000361e+02
1.013928e+02
1.013678e+02
1.013428e+02
1.013178e+02
1.012928e+02
1.012678e+02
1.012428e+02
1.012178e+02
1.011928e+02
1.011678e+02
1.011428e+02
1.011178e+02
1.010928e+02
1.010678e+02
1.010428e+02
1.010178e+02
1.009928e+02
1.009678e+02
1.009428e+02
1.009178e+02
1.008928e+02
1.008678e+02
1.008428e+02
1.008178e+02
1.007928e+02
1.007678e+02
1.007428e+02
1.007178e+02
1.006928e+02
1.006678e+02
1.006428e+02
1.006178e+02
1.005928e+02
1.005678e+02
1.005428e+02
1.005178e+02
1.004928e+02
1.004678e+02
1.004428e+02
1.004178e+02
1.003928e+02
1.003678e+02
1.003428e+02
1.003178e+02
1.002928e+02
1.002678e+02
1.002428e+02
1.002178e+02
1.001928e+02
1.001678e+02
1.001428e+02
1.001178e+02
1.000928e+02
1.000678e+02
1.000428e+02
1.000178e+02
9.999282e+01
1.013495e+02
1.013245e+02
1.012995e+02
1.012745e+02
1.012495e+02
1.012245e+02
1.011995e+02
1.011745e+02
1.011495e+02
1.011245e+02
1.010995e+02
1.010745e+02
1.010495e+02
1.010245e+02
1.009995e+02
1.009745e+02
1.009495e+02
1.009245e+02
1.008995e+02
1.008745e+02
1.008495e+02
1.008245e+02
1.007995e+02
1.007745e+02
1.007495e+02
1.007245e+02
1.006995e+02
1.006745e+02
1.006495e+02
1.006245e+02
1.005995e+02
1.005745e+02
1.005495e+02
1.005245e+02
1.004995e+02
1.004745e+02
1.004495e+02
1.004245e+02
1.003995e+02
1.003745e+02
1.003495e+02
1.003245e+02
1.002995e+02
1.002745e+02
1.002495e+02
1.002245e+02
1.001995e+02
1.001745e+02
1.001495e+02
1.001245e+02
1.000995e+02
1.000745e+02
1.000495e+02
1.000245e+02
9.999952e+01
9.997452e+01
9.994952e+01
1.013062e+02
1.012812e+02
1.012562e+02
1.012312e+02
1.012062e+02
1.011812e+02
1.011562e+02
1.011312e+02
1.011062e+02
1.010812e+02
1.010562e+02
1.010312e+02
1.010062e+02
1.009812e+02
1.009562e+02
1.009312e+02
1.009062e+02
1.008812e+02
1.008562e+02
1.008312e+02
1.008062e+02
1.007812e+02
1.007562e+02
1.007312e+02
1.007062e+02
1.006812e+02
1.006562e+02
1.006312e+02
1.006062e+02
1.005812e+02
1.005562e+02
1.005312e+02
1.005062e+02
1.004812e+02
1.004562e+02
1.004312e+02
1.004062e+02
1.003812e+02
1.003562e+02
1.003312e+02
1.003062e+02
1.002812e+02
1.002562e+02
1.002312e+02
1.002062e+02
1.001812e+02
1.001562e+02
1.001312e+02
1.001062e+02
1.000812e+02
1.000562e+02
1.000312e+02
1.000062e+02
9.998122e+01
9.995622e+01
9.993122e+01
9.990622e+01
1.012629e+02
1.012379e+02
1.012129e+02
1.011879e+02
1.011629e+02
1.011379e+02
1.011129e+02
1.010879e+02
1.010629e+02
1.010379e+02
1.010129e+02
1.009879e+02
1.009629e+02
1.009379e+02
1.009129e+02
1.008879e+02
1.008629e+02
1.008379e+02
1.008129e+02
1.007879e+02
1.007629e+02
1.007379e+02
1.007129e+02
1.006879e+02
1.006629e+02
1.006379e+02
1.006129e+02
1.005879e+02
1.005629e+02
1.005379e+02
1.005129e+02
1.004879e+02
1.004629e+02
1.004379e+02
1.004129e+02
1.003879e+02
1.003629e+02
1.003379e+02
1.003129e+02
1.002879e+02
1.002629e+02
1.002379e+02
1.002129e+02
1.001879e+02
1.001629e+02
1.001379e+02
1.001129e+02
1.000879e+02
1.000629e+02
1.000379e+02
1.000129e+02
9.998792e+01
9.996292e+01
9.993792e+01
9.991292e+01
9.988792e+01
9.986292e+01
1.012196e+02
1.011946e+02
1.011696e+02
1.011446e+02
1.011196e+02
1.010946e+02
1.010696e+02
1.010446e+02
1.010196e+02
1.009946e+02
1.009696e+02
1.009446e+02
1.009196e+02
1.008946e+02
1.008696e+02
1.008446e+02
1.008196e+02
1.007946e+02
1.007696e+02
1.007446e+02
1.007196e+02
1.006946e+02
1.006696e+02
1.006446e+02
1.006196e+02
1.005946e+02
1.005696e+02
1.005446e+02
1.005196e+02
1.004946e+02
1.004696e+02
1.004446e+02
1.004196e+02
1.003946e+02
1.003696e+02
1.003446e+02
1.003196e+02
1.002946e+02
1.002696e+02
1.002446e+02
1.002196e+02
1.001946e+02
1.001696e+02
1.001446e+02
1.001196e+02
1.000946e+02
1.000696e+02
1.000446e+02
1.000196e+02
9.999462e+01
9.996962e+01
9.994462e+01
9.991962e+01
9.989462e+01
9.986962e+01
9.984462e+01
9.981962e+01
1.011763e+02
1.011513e+02
1.011263e+02
1.011013e+02
1.010763e+02
1.010513e+02
1.010263e+02
1.010013e+02
1.009763e+02
1.009513e+02
1.009263e+02
1.009013e+02
1.008763e+02
1.008513e+02
1.008263e+02
1.008013e+02
1.007763e+02
1.007513e+02
1.007263e+02
1.007013e+02
1.006763e+02
1.006513e+02
1.006263e+02
1.006013e+02
1.005763e+02
1.005513e+02
1.005263e+02
1.005013e+02
1.004763e+02
1.004513e+02
1.004263e+02
1.004013e+02
1.003763e+02
1.003513e+02
1.003263e+02
1.003013e+02
1.002763e+02
1.002513e+02
1.002263e+02
1.002013e+02
1.001763e+02
1.001513e+02
1.001263e+02
1.001013e+02
1.000763e+02
1.000513e+02
1.000263e+02
1.000013e+02
9.997631e+01
9.995131e+01
9.992631e+01
9.990131e+01
9.987631e+01
9.985131e+01
9.982631e+01
9.980131e+01
9.977631e+01
1.011330e+02
1.011080e+02
1.010830e+02
1.010580e+02
1.010330e+02
1.010080e+02
1.009830e+02
1.009580e+02
1.009330e+02
1.009080e+02
1.008830e+02
1.008580e+02
1.008330e+02
1.008080e+02
1.007830e+02
1.007580e+02
1.007330e+02
1.007080e+02
1.006830e+02
1.006580e+02
1.006330e+02
1.006080e+02
1.005830e+02
1.005580e+02
1.005330e+02
1.005080e+02
1.004830e+02
1.004580e+02
1.004330e+02
1.004080e+02
1.003830e+02
1.003580e+02
1.003330e+02
1.003080e+02
1.002830e+02
1.002580e+02
1.002330e+02
1.002080e+02
1.001830e+02
1.001580e+02
1.001330e+02
1.001080e+02
1.000830e+02
1.000580e+02
1.000330e+02
1.000080e+02
9.998301e+01
9.995801e+01
9.993301e+01
9.990801e+01
9.988301e+01
9.985801e+01
9.983301e+01
9.980801e+01
9.978301e+01
9.975801e+01
9.973301e+01
1.010897e+02
1.010647e+02
1.010397e+02
1.010147e+02
1.009897e+02
1.009647e+02
1.009397e+02
1.009147e+02
1.008897e+02
1.008647e+02
1.008397e+02
1.008147e+02
1.007897e+02
1.007647e+02
1.007397e+02
1.007147e+02
1.006897e+02
1.006647e+02
1.006397e+02
1.006147e+02
1.005897e+02
1.005647e+02
1.005397e+02
1.005147e+02
1.004897e+02
1.004647e+02
1.004397e+02
1.004147e+02
1.003897e+02
1.003647e+02
1.003397e+02
1.003147e+02
1.002897e+02
1.002647e+02
1.002397e+02
1.002147e+02
1.001897e+02
1.001647e+02
1.001397e+02
1.001147e+02
1.000897e+02
1.000647e+02
1.000397e+02
1.000147e+02
9.998971e+01
9.996471e+01
9.993971e+01
9.991471e+01
9.988971e+01
9.986471e+01
9.983971e+01
9.981471e+01
9.978971e+01
9.976471e+01
9.973971e+01
9.971471e+01
9.968971e+01
1.010464e+02
1.010214e+02
1.009964e+02
1.009714e+02
1.009464e+02
1.009214e+02
1.008964e+02
1.008714e+02
1.008464e+02
1.008214e+02
1.007964e+02
1.007714e+02
1.007464e+02
1.007214e+02
1.006964e+02
1.006714e+02
1.006464e+02
1.006214e+02
1.005964e+02
1.005714e+02
1.005464e+02
1.005214e+02
1.004964e+02
1.004714e+02
1.004464e+02
1.004214e+02
1.003964e+02
1.003714e+02
1.003464e+02
1.003214e+02
1.002964e+02
1.002714e+02
1.002464e+02
1.002214e+02
1.001964e+02
1.001714e+02
1.001464e+02
1.001214e+02
1.000964e+02
1.000714e+02
1.000464e+02
1.000214e+02
9.999641e+01
9.997141e+01
9.994641e+01
9.992141e+01
9.989641e+01
9.987141e+01
9.984641e+01
9.982141e+01
9.979641e+01
9.977141e+01
9.974641e+01
9.972141e+01
9.969641e+01
9.967141e+01
9.964641e+01
1.010031e+02
1.009781e+02
1.009531e+02
1.009281e+02
1.009031e+02
1.008781e+02
1.008531e+02
1.008281e+02
1.008031e+02
1.007781e+02
1.007531e+02
1.007281e+02
1.007031e+02
1.006781e+02
1.006531e+02
1.006281e+02
1.006031e+02
1.005781e+02
1.005531e+02
1.005281e+02
1.005031e+02
1.004781e+02
1.004531e+02
1.004281e+02
1.004031e+02
1.003781e+02
1.003531e+02
1.003281e+02
1.003031e+02
1.002781e+02
1.002531e+02
1.002281e+02
1.002031e+02
1.001781e+02
1.001531e+02
1.001281e+02
1.001031e+02
1.000781e+02
1.000531e+02
1.000281e+02
1.000031e+02
9.997811e+01
9.995311e+01
9.992811e+01
9.990311e+01
9.987811e+01
9.985311e+01
9.982811e+01
9.980311e+01
9.977811e+01
9.975311e+01
9.972811e+01
9.970311e+01
9.967811e+01
9.965311e+01
9.962811e+01
9.960311e+01
1.009598e+02
1.009348e+02
1.009098e+02
1.008848e+02
1.008598e+02
1.008348e+02
1.008098e+02
1.007848e+02
1.007598e+02
1.007348e+02
1.007098e+02
1.006848e+02
1.006598e+02
1.006348e+02
1.006098e+02
1.005848e+02
1.005598e+02
1.005348e+02
1.005098e+02
1.004848e+02
1.004598e+02
1.004348e+02
1.004098e+02
1.003848e+02
1.003598e+02
1.003348e+02
1.003098e+02
1.002848e+02
1.002598e+02
1.002348e+02
1.002098e+02
1.001848e+02
1.001598e+02
1.001348e+02
1.001098e+02
1.000848e+02
1.000598e+02
1.000348e+02
1.000098e+02
9.998481e+01
9.995981e+01
9.993481e+01
9.990981e+01
9.988481e+01
9.985981e+01
9.983481e+01
9.980981e+01
9.978481e+01
9.975981e+01
9.973481e+01
9.970981e+01
9.968481e+01
9.965981e+01
9.963481e+01
9.960981e+01
9.958481e+01
9.955981e+01
1.009165e+02
1.008915e+02
1.008665e+02
1.008415e+02
1.008165e+02
1.007915e+02
1.007665e+02
1.007415e+02
1.007165e+02
1.006915e+02
1.006665e+02
1.006415e+02
1.006165e+02
1.005915e+02
1.005665e+02
1.005415e+02
1.005165e+02
1.004915e+02
1.004665e+02
1.004415e+02
1.004165e+02
1.003915e+02
1.003665e+02
1.003415e+02
1.003165e+02
1.002915e+02
1.002665e+02
1.002415e+02
1.002165e+02
1.001915e+02
1.001665e+02
1.001415e+02
1.001165e+02
1.000915e+02
1.000665e+02
1.000415e+02
1.000165e+02
9.999151e+01
9.996651e+01
9.994151e+01
9.991651e+01
9.989151e+01
9.986651e+01
9.984151e+01
9.981651e+01
9.979151e+01
9.976651e+01
9.974151e+01
9.971651e+01
9.969151e+01
9.966651e+01
9.964151e+01
9.961651e+01
9.959151e+01
9.956651e+01
9.954151e+01
9.951651e+01
1.008732e+02
1.008482e+02
1.008232e+02
1.007982e+02
1.007732e+02
1.007482e+02
1.007232e+02
1.006982e+02
1.006732e+02
1.006482e+02
1.006232e+02
1.005982e+02
1.005732e+02
1.005482e+02
1.005232e+02
1.004982e+02
1.004732e+02
1.004482e+02
1.004232e+02
1.003982e+02
1.003732e+02
1.003482e+02
1.003232e+02
1.002982e+02
1.002732e+02
1.002482e+02
1.002232e+02
1.001982e+02
1.001732e+02
1.001482e+02
1.001232e+02
1.000982e+02
1.000732e+02
1.000482e+02
1.000232e+02
9.999821e+01
9.997321e+01
9.994821e+01
9.992321e+01
9.989821e+01
9.987321e+01
9.984821e+01
9.982321e+01
9.979821e+01
9.977321e+01
9.974821e+01
9.972321e+01
9.969821e+01
9.967321e+01
9.964821e+01
9.962321e+01
9.959821e+01
9.957321e+01
9.954821e+01
9.952321e+01
9.949821e+01
9.947321e+01
1.008299e+02
1.008049e+02
1.007799e+02
1.007549e+02
1.007299e+02
1.007049e+02
1.006799e+02
1.006549e+02
1.006299e+02
1.006049e+02
1.005799e+02
1.005549e+02
1.005299e+02
1.005049e+02
1.004799e+02
1.004549e+02
1.004299e+02
1.004049e+02
1.003799e+02
1.003549e+02
1.003299e+02
1.003049e+02
1.002799e+02
1.002549e+02
1.002299e+02
1.002049e+02
1.001799e+02
1.001549e+02
1.001299e+02
1.001049e+02
1.000799e+02
1.000549e+02
1.000299e+02
1.000049e+02
9.997990e+01
9.995490e+01
9.992990e+01
9.990490e+01
9.987990e+01
9.985490e+01
9.982990e+01
9.980490e+01
9.977990e+01
9.975490e+01
9.972990e+01
9.970490e+01
9.967990e+01
9.965490e+01
9.962990e+01
9.960490e+01
9.957990e+01
9.955490e+01
9.952990e+01
9.950490e+01
9.947990e+01
9.945490e+01
9.942990e+01
1.007866e+02
1.007616e+02
1.007366e+02
1.007116e+02
1.006866e+02
1.006616e+02
1.006366e+02
1.006116e+02
1.005866e+02
1.005616e+02
1.005366e+02
1.005116e+02
1.004866e+02
1.004616e+02
1.004366e+02
1.004116e+02
1.003866e+02
1.003616e+02
1.003366e+02
1.003116e+02
1.002866e+02
1.002616e+02
1.002366e+02
1.002116e+02
1.001866e+02
1.001616e+02
1.001366e+02
1.001116e+02
1.000866e+02
1.000616e+02
1.000366e+02
1.000116e+02
9.998660e+01
9.996160e+01
9.993660e+01
9.991160e+01
9.988660e+01
9.986160e+01
9.983660e+01
9.981160e+01
9.978660e+01
9.976160e+01
9.973660e+01
9.971160e+01
9.968660e+01
9.966160e+01
9.963660e+01
9.961160e+01
9.958660e+01
9.956160e+01
9.953660e+01
9.951160e+01
9.948660e+01
9.946160e+01
9.943660e+01
9.941160e+01
9.938660e+01
1.007433e+02
1.007183e+02
1.006933e+02
1.006683e+02
1.006433e+02
1.006183e+02
1.005933e+02
1.005683e+02
1.005433e+02
1.005183e+02
1.004933e+02
1.004683e+02
1.004433e+02
1.004183e+02
1.003933e+02
1.003683e+02
1.003433e+02
1.003183e+02
1.002933e+02
1.002683e+02
1.002433e+02
1.002183e+02
1.001933e+02
1.001683e+02
1.001433e+02
1.001183e+02
1.000933e+02
1.000683e+02
1.000433e+02
1.000183e+02
9.999330e+01
9.996830e+01
9.994330e+01
9.991830e+01
9.989330e+01
9.986830e+01
9.984330e+01
9.981830e+01
9.979330e+01
9.976830e+01
9.974330e+01
9.971830e+01
9.969330e+01
9.966830e+01
9.964330e+01
9.961830e+01
9.959330e+01
9.956830e+01
9.954330e+01
9.951830e+01
9.949330e+01
9.946830e+01
9.944330e+01
9.941830e+01
9.939330e+01
9.936830e+01
9.934330e+01
1.007000e+02
1.006750e+02
1.006500e+02
1.006250e+02
1.006000e+02
1.005750e+02
1.005500e+02
1.005250e+02
1.005000e+02
1.004750e+02
1.004500e+02
1.004250e+02
1.004000e+02
1.003750e+02
1.003500e+02
1.003250e+02
1.003000e+02
1.002750e+02
1.002500e+02
1.002250e+02
1.002000e+02
1.001750e+02
1.001500e+02
1.001250e+02
1.001000e+02
1.000750e+02
1.000500e+02
1.000250e+02
1.000000e+02
9.997500e+01
9.995000e+01
9.992500e+01
9.990000e+01
9.987500e+01
9.985000e+01
9.982500e+01
9.980000e+01
9.977500e+01
9.975000e+01
9.972500e+01
9.970000e+01
9.967500e+01
9.965000e+01
9.962500e+01
9.960000e+01
9.957500e+01
9.955000e+01
9.952500e+01
9.950000e+01
9.947500e+01
9.945000e+01
9.942500e+01
9.940000e+01
9.937500e+01
9.935000e+01
9.932500e+01
9.930000e+01
1.006567e+02
1.006317e+02
1.006067e+02
1.005817e+02
1.005567e+02
1.005317e+02
1.005067e+02
1.004817e+02
1.004567e+02
1.004317e+02
1.004067e+02
1.003817e+02
1.003567e+02
1.003317e+02
1.003067e+02
1.002817e+02
1.002567e+02
1.002317e+02
1.002067e+02
1.001817e+02
1.001567e+02
1.001317e+02
1.001067e+02
1.000817e+02
1.000567e+02
1.000317e+02
1.000067e+02
9.998170e+01
9.995670e+01
9.993170e+01
9.990670e+01
9.988170e+01
9.985670e+01
9.983170e+01
9.980670e+01
9.978170e+01
9.975670e+01
9.973170e+01
9.970670e+01
9.968170e+01
9.965670e+01
9.963170e+01
9.960670e+01
9.958170e+01
9.955670e+01
9.953170e+01
9.950670e+01
9.948170e+01
9.945670e+01
9.943170e+01
9.940670e+01
9.938170e+01
9.935670e+01
9.933170e+01
9.930670e+01
9.928170e+01
9.925670e+01
1.006134e+02
1.005884e+02
1.005634e+02
1.005384e+02
1.005134e+02
1.004884e+02
1.004634e+02
1.004384e+02
1.004134e+02
1.003884e+02
1.003634e+02
1.003384e+02
1.003134e+02
1.002884e+02
1.002634e+02
1.002384e+02
1.002134e+02
1.001884e+02
1.001634e+02
1.001384e+02
1.001134e+02
1.000884e+02
1.000634e+02
1.000384e+02
1.000134e+02
9.998840e+01
9.996340e+01
9.993840e+01
9.991340e+01
9.988840e+01
9.986340e+01
9.983840e+01
9.981340e+01
9.978840e+01
9.976340e+01
9.973840e+01
9.971340e+01
9.968840e+01
9.966340e+01
9.963840e+01
9.961340e+01
9.958840e+01
9.956340e+01
9.953840e+01
9.951340e+01
9.948840e+01
9.946340e+01
9.943840e+01
9.941340e+01
9.938840e+01
9.936340e+01
9.933840e+01
9.931340e+01
9.928840e+01
9.926340e+01
9.923840e+01
9.921340e+01
1.005701e+02
1.005451e+02
1.005201e+02
1.004951e+02
1.004701e+02
1.004451e+02
1.004201e+02
1.003951e+02
1.003701e+02
1.003451e+02
1.003201e+02
1.002951e+02
1.002701e+02
1.002451e+02
1.002201e+02
1.001951e+02
1.001701e+02
1.001451e+02
1.001201e+02
1.000951e+02
1.000701e+02
1.000451e+02
1.000201e+02
9.999510e+01
9.997010e+01
9.994510e+01
9.992010e+01
9.989510e+01
9.987010e+01
9.984510e+01
9.982010e+01
9.979510e+01
9.977010e+01
9.974510e+01
9.972010e+01
9.969510e+01
9.967010e+01
9.964510e+01
9.962010e+01
9.959510e+01
9.957010e+01
9.954510e+01
9.952010e+01
9.949510e+01
9.947010e+01
9.944510e+01
9.942010e+01
9.939510e+01
9.937010e+01
9.934510e+01
9.932010e+01
9.929510e+01
9.927010e+01
9.924510e+01
9.922010e+01
9.919510e+01
9.917010e+01
1.005268e+02
1.005018e+02
1.004768e+02
1.004518e+02
1.004268e+02
1.004018e+02
1.003768e+02
1.003518e+02
1.003268e+02
1.003018e+02
1.002768e+02
1.002518e+02
1.002268e+02
1.002018e+02
1.001768e+02
1.001518e+02
1.001268e+02
1.001018e+02
1.000768e+02
1.000518e+02
1.000268e+02
1.000018e+02
9.997679e+01
9.995179e+01
9.992679e+01
9.990179e+01
9.987679e+01
9.985179e+01
9.982679e+01
9.980179e+01
9.977679e+01
9.975179e+01
9.972679e+01
9.970179e+01
9.967679e+01
9.965179e+01
9.962679e+01
9.960179e+01
9.957679e+01
9.955179e+01
9.952679e+01
9.950179e+01
9.947679e+01
9.945179e+01
9.942679e+01
9.940179e+01
9.937679e+01
9.935179e+01
9.932679e+01
9.930179e+01
9.927679e+01
9.925179e+01
9.922679e+01
9.920179e+01
9.917679e+01
9.915179e+01
9.912679e+01
1.004835e+02
1.004585e+02
1.004335e+02
1.004085e+02
1.003835e+02
1.003585e+02
1.003335e+02
1.003085e+02
1.002835e+02
1.002585e+02
1.002335e+02
1.002085e+02
1.001835e+02
1.001585e+02
1.001335e+02
1.001085e+02
1.000835e+02
1.000585e+02
1.000335e+02
1.000085e+02
9.998349e+01
9.995849e+01
9.993349e+01
9.990849e+01
9.988349e+01
9.985849e+01
9.983349e+01
9.980849e+01
9.978349e+01
9.975849e+01
9.973349e+01
9.970849e+01
9.968349e+01
9.965849e+01
9.963349e+01
9.960849e+01
9.958349e+01
9.955849e+01
9.953349e+01
9.950849e+01
9.948349e+01
9.945849e+01
9.943349e+01
9.940849e+01
9.938349e+01
9.935849e+01
9.933349e+01
9.930849e+01
9.928349e+01
9.925849e+01
9.923349e+01
9.920849e+01
9.918349e+01
9.915849e+01
9.913349e+01
9.910849e+01
9.908349e+01
1.004402e+02
1.004152e+02
1.003902e+02
1.003652e+02
1.003402e+02
1.003152e+02
1.002902e+02
1.002652e+02
1.002402e+02
1.002152e+02
1.001902e+02
1.001652e+02
1.001402e+02
1.001152e+02
1.000902e+02
1.000652e+02
1.000402e+02
1.000152e+02
9.999019e+01
9.996519e+01
9.994019e+01
9.991519e+01
9.989019e+01
9.986519e+01
9.984019e+01
9.981519e+01
9.979019e+01
9.976519e+01
9.974019e+01
9.971519e+01
9.969019e+01
9.966519e+01
9.964019e+01
9.961519e+01
9.959019e+01
9.956519e+01
9.954019e+01
9.951519e+01
9.949019e+01
9.946519e+01
9.944019e+01
9.941519e+01
9.939019e+01
9.936519e+01
9.934019e+01
9.931519e+01
9.929019e+01
9.926519e+01
9.924019e+01
9.921519e+01
9.919019e+01
9.916519e+01
9.914019e+01
9.911519e+01
9.909019e+01
9.906519e+01
9.904019e+01
1.003969e+02
1.003719e+02
1.003469e+02
1.003219e+02
1.002969e+02
1.002719e+02
1.002469e+02
1.002219e+02
1.001969e+02
1.001719e+02
1.001469e+02
1.001219e+02
1.000969e+02
1.000719e+02
1.000469e+02
1.000219e+02
9.999689e+01
9.997189e+01
9.994689e+01
9.992189e+01
9.989689e+01
9.987189e+01
9.984689e+01
9.982189e+01
9.979689e+01
9.977189e+01
9.974689e+01
9.972189e+01
9.969689e+01
9.967189e+01
9.964689e+01
9.962189e+01
9.959689e+01
9.957189e+01
9.954689e+01
9.952189e+01
9.949689e+01
9.947189e+01
9.944689e+01
9.942189e+01
9.939689e+01
9.937189e+01
9.934689e+01
9.932189e+01
9.929689e+01
9.927189e+01
9.924689e+01
9.922189e+01
9.919689e+01
9.917189e+01
9.914689e+01
9.912189e+01
9.909689e+01
9.907189e+01
9.904689e+01
9.902189e+01
9.899689e+01
1.003536e+02
1.003286e+02
1.003036e+02
1.002786e+02
1.002536e+02
1.002286e+02
1.002036e+02
1.001786e+02
1.001536e+02
1.001286e+02
1.001036e+02
1.000786e+02
1.000536e+02
1.000286e+02
1.000036e+02
9.997859e+01
9.995359e+01
9.992859e+01
9.990359e+01
9.987859e+01
9.985359e+01
9.982859e+01
9.980359e+01
9.977859e+01
9.975359e+01
9.972859e+01
9.970359e+01
9.967859e+01
9.965359e+01
9.962859e+01
9.960359e+01
9.957859e+01
9.955359e+01
9.952859e+01
9.950359e+01
9.947859e+01
9.945359e+01
9.942859e+01
9.940359e+01
9.937859e+01
9.935359e+01
9.932859e+01
9.930359e+01
9.927859e+01
9.925359e+01
9.922859e+01
9.920359e+01
9.917859e+01
9.915359e+01
9.912859e+01
9.910359e+01
9.907859e+01
9.905359e+01
9.902859e+01
9.900359e+01
9.897859e+01
9.895359e+01
1.003103e+02
1.002853e+02
1.002603e+02
1.002353e+02
1.002103e+02
1.001853e+02
1.001603e+02
1.001353e+02
1.001103e+02
1.000853e+02
1.000603e+02
1.000353e+02
1.000103e+02
9.998529e+01
9.996029e+01
9.993529e+01
9.991029e+01
9.988529e+01
9.986029e+01
9.983529e+01
9.981029e+01
9.978529e+01
9.976029e+01
9.973529e+01
9.971029e+01
9.968529e+01
9.966029e+01
9.963529e+01
9.961029e+01
9.958529e+01
9.956029e+01
9.953529e+01
9.951029e+01
9.948529e+01
9.946029e+01
9.943529e+01
9.941029e+01
9.938529e+01
9.936029e+01
9.933529e+01
9.931029e+01
9.928529e+01
9.926029e+01
9.923529e+01
9.921029e+01
9.918529e+01
9.916029e+01
9.913529e+01
9.911029e+01
9.908529e+01
9.906029e+01
9.903529e+01
9.901029e+01
9.898529e+01
9.896029e+01
9.893529e+01
9.891029e+01
1.002670e+02
1.002420e+02
1.002170e+02
1.001920e+02
1.001670e+02
1.001420e+02
1.001170e+02
1.000920e+02
1.000670e+02
1.000420e+02
1.000170e+02
9.999199e+01
9.996699e+01
9.994199e+01
9.991699e+01
9.989199e+01
9.986699e+01
9.984199e+01
9.981699e+01
9.979199e+01
9.976699e+01
9.974199e+01
9.971699e+01
9.969199e+01
9.966699e+01
9.964199e+01
9.961699e+01
9.959199e+01
9.956699e+01
9.954199e+01
9.951699e+01
9.949199e+01
9.946699e+01
9.944199e+01
9.941699e+01
9.939199e+01
9.936699e+01
9.934199e+01
9.931699e+01
9.929199e+01
9.926699e+01
9.924199e+01
9.921699e+01
9.919199e+01
9.916699e+01
9.914199e+01
9.911699e+01
9.909199e+01
9.906699e+01
9.904199e+01
9.901699e+01
9.899199e+01
9.896699e+01
9.894199e+01
9.891699e+01
9.889199e+01
9.886699e+01
1.002237e+02
1.001987e+02
1.001737e+02
1.001487e+02
1.001237e+02
1.000987e+02
1.000737e+02
1.000487e+02
1.000237e+02
9.999869e+01
9.997369e+01
9.994869e+01
9.992369e+01
9.989869e+01
9.987369e+01
9.984869e+01
9.982369e+01
9.979869e+01
9.977369e+01
9.974869e+01
9.972369e+01
9.969869e+01
9.967369e+01
9.964869e+01
9.962369e+01
9.959869e+01
9.957369e+01
9.954869e+01
9.952369e+01
9.949869e+01
9.947369e+01
9.944869e+01
9.942369e+01
9.939869e+01
9.937369e+01
9.934869e+01
9.932369e+01
9.929869e+01
9.927369e+01
9.924869e+01
9.922369e+01
9.919869e+01
9.917369e+01
9.914869e+01
9.912369e+01
9.909869e+01
9.907369e+01
9.904869e+01
9.902369e+01
9.899869e+01
9.897369e+01
9.894869e+01
9.892369e+01
9.889869e+01
9.887369e+01
9.884869e+01
9.882369e+01
1.001804e+02
1.001554e+02
1.001304e+02
1.001054e+02
1.000804e+02
1.000554e+02
1.000304e+02
1.000054e+02
9.998038e+01
9.995538e+01
9.993038e+01
9.990538e+01
9.988038e+01
9.985538e+01
9.983038e+01
9.980538e+01
9.978038e+01
9.975538e+01
9.973038e+01
9.970538e+01
9.968038e+01
9.965538e+01
9.963038e+01
9.960538e+01
9.958038e+01
9.955538e+01
9.953038e+01
9.950538e+01
9.948038e+01
9.945538e+01
9.943038e+01
9.940538e+01
9.938038e+01
9.935538e+01
9.933038e+01
9.930538e+01
9.928038e+01
9.925538e+01
9.923038e+01
9.920538e+01
9.918038e+01
9.915538e+01
9.913038e+01
9.910538e+01
9.908038e+01
9.905538e+01
9.903038e+01
9.900538e+01
9.898038e+01
9.895538e+01
9.893038e+01
9.890538e+01
9.888038e+01
9.885538e+01
9.883038e+01
9.880538e+01
9.878038e+01
1.001371e+02
1.001121e+02
1.000871e+02
1.000621e+02
1.000371e+02
1.000121e+02
9.998708e+01
9.996208e+01
9.993708e+01
9.991208e+01
9.988708e+01
9.986208e+01
9.983708e+01
9.981208e+01
9.978708e+01
9.976208e+01
9.973708e+01
9.971208e+01
9.968708e+01
9.966208e+01
9.963708e+01
9.961208e+01
9.958708e+01
9.956208e+01
9.953708e+01
9.951208e+01
9.948708e+01
9.946208e+01
9.943708e+01
9.941208e+01
9.938708e+01
9.936208e+01
9.933708e+01
9.931208e+01
9.928708e+01
9.926208e+01
9.923708e+01
9.921208e+01
9.918708e+01
9.916208e+01
9.913708e+01
9.911208e+01
9.908708e+01
9.906208e+01
9.903708e+01
9.901208e+01
9.898708e+01
9.896208e+01
9.893708e+01
9.891208e+01
9.888708e+01
9.886208e+01
9.883708e+01
9.881208e+01
9.878708e+01
9.876208e+01
9.873708e+01
1.000938e+02
1.000688e+02
1.000438e+02
1.000188e+02
9.999378e+01
9.996878e+01
9.994378e+01
9.991878e+01
9.989378e+01
9.986878e+01
9.984378e+01
9.981878e+01
9.979378e+01
9.976878e+01
9.974378e+01
9.971878e+01
9.969378e+01
9.966878e+01
9.964378e+01
9.961878e+01
9.959378e+01
9.956878e+01
9.954378e+01
9.951878e+01
9.949378e+01
9.946878e+01
9.944378e+01
9.941878e+01
9.939378e+01
9.936878e+01
9.934378e+01
9.931878e+01
9.929378e+01
9.926878e+01
9.924378e+01
9.921878e+01
9.919378e+01
9.916878e+01
9.914378e+01
9.911878e+01
9.909378e+01
9.906878e+01
9.904378e+01
9.901878e+01
9.899378e+01
9.896878e+01
9.894378e+01
9.891878e+01
9.889378e+01
9.886878e+01
9.884378e+01
9.881878e+01
9.879378e+01
9.876878e+01
9.874378e+01
9.871878e+01
9.869378e+01
1.000505e+02
1.000255e+02
1.000005e+02
9.997548e+01
9.995048e+01
9.992548e+01
9.990048e+01
9.987548e+01
9.985048e+01
9.982548e+01
9.980048e+01
9.977548e+01
9.975048e+01
9.972548e+01
9.970048e+01
9.967548e+01
9.965048e+01
9.962548e+01
9.960048e+01
9.957548e+01
9.955048e+01
9.952548e+01
9.950048e+01
9.947548e+01
9.945048e+01
9.942548e+01
9.940048e+01
9.937548e+01
9.935048e+01
9.932548e+01
9.930048e+01
9.927548e+01
9.925048e+01
9.922548e+01
9.920048e+01
9.917548e+01
9.915048e+01
9.912548e+01
9.910048e+01
9.907548e+01
9.905048e+01
9.902548e+01
9.900048e+01
9.897548e+01
9.895048e+01
9.892548e+01
9.890048e+01
9.887548e+01
9.885048e+01
9.882548e+01
9.880048e+01
9.877548e+01
9.875048e+01
9.872548e+01
9.870048e+01
9.867548e+01
9.865048e+01
1.000072e+02
9.998218e+01
9.995718e+01
9.993218e+01
9.990718e+01
9.988218e+01
9.985718e+01
9.983218e+01
9.980718e+01
9.978218e+01
9.975718e+01
9.973218e+01
9.970718e+01
9.968218e+01
9.965718e+01
9.963218e+01
9.960718e+01
9.958218e+01
9.955718e+01
9.953218e+01
9.950718e+01
9.948218e+01
9.945718e+01
9.943218e+01
9.940718e+01
9.938218e+01
9.935718e+01
9.933218e+01
9.930718e+01
9.928218e+01
9.925718e+01
9.923218e+01
9.920718e+01
9.918218e+01
9.915718e+01
9.913218e+01
9.910718e+01
9.908218e+01
9.905718e+01
9.903218e+01
9.900718e+01
9.898218e+01
9.895718e+01
9.893218e+01
9.890718e+01
9.888218e+01
9.885718e+01
9.883218e+01
9.880718e+01
9.878218e+01
9.875718e+01
9.873218e+01
9.870718e+01
9.868218e+01
9.865718e+01
9.863218e+01
9.860718e+01
9.996388e+01
9.993888e+01
9.991388e+01
9.988888e+01
9.986388e+01
9.983888e+01
9.981388e+01
9.978888e+01
9.976388e+01
9.973888e+01
9.971388e+01
9.968888e+01
9.966388e+01
9.963888e+01
9.961388e+01
9.958888e+01
9.956388e+01
9.953888e+01
9.951388e+01
9.948888e+01
9.946388e+01
9.943888e+01
9.941388e+01
9.938888e+01
9.936388e+01
9.933888e+01
9.931388e+01
9.928888e+01
9.926388e+01
9.923888e+01
9.921388e+01
9.918888e+01
9.916388e+01
9.913888e+01
9.911388e+01
9.908888e+01
9.906388e+01
9.903888e+01
9.901388e+01
9.898888e+01
9.896388e+01
9.893888e+01
9.891388e+01
9.888888e+01
9.886388e+01
9.883888e+01
9.881388e+01
9.878888e+01
9.876388e+01
9.873888e+01
9.871388e+01
9.868888e+01
9.866388e+01
9.863888e+01
9.861388e+01
9.858888e+01
9.856388e+01
9.992058e+01
9.989558e+01
9.987058e+01
9.984558e+01
9.982058e+01
9.979558e+01
9.977058e+01
9.974558e+01
9.972058e+01
9.969558e+01
9.967058e+01
9.964558e+01
9.962058e+01
9.959558e+01
9.957058e+01
9.954558e+01
9.952058e+01
9.949558e+01
9.947058e+01
9.944558e+01
9.942058e+01
9.939558e+01
9.937058e+01
9.934558e+01
9.932058e+01
9.929558e+01
9.927058e+01
9.924558e+01
9.922058e+01
9.919558e+01
9.917058e+01
9.914558e+01
9.912058e+01
9.909558e+01
9.907058e+01
9.904558e+01
9.902058e+01
9.899558e+01
9.897058e+01
9.894558e+01
9.892058e+01
9.889558e+01
9.887058e+01
9.884558e+01
9.882058e+01
9.879558e+01
9.877058e+01
9.874558e+01
9.872058e+01
9.869558e+01
9.867058e+01
9.864558e+01
9.862058e+01
9.859558e+01
9.857058e+01
9.854558e+01
9.852058e+01
9.987728e+01
9.985228e+01
9.982728e+01
9.980228e+01
9.977728e+01
9.975228e+01
9.972728e+01
9.970228e+01
9.967728e+01
9.965228e+01
9.962728e+01
9.960228e+01
9.957728e+01
9.955228e+01
9.952728e+01
9.950228e+01
9.947728e+01
9.945228e+01
9.942728e+01
9.940228e+01
9.937728e+01
9.935228e+01
9.932728e+01
9.930228e+01
9.927728e+01
9.925228e+01
9.922728e+01
9.920228e+01
9.917728e+01
9.915228e+01
9.912728e+01
9.910228e+01
9.907728e+01
9.905228e+01
9.902728e+01
9.900228e+01
9.897728e+01
9.895228e+01
9.892728e+01
9.890228e+01
9.887728e+01
9.885228e+01
9.882728e+01
9.880228e+01
9.877728e+01
9.875228e+01
9.872728e+01
9.870228e+01
9.867728e+01
9.865228e+01
9.862728e+01
9.860228e+01
9.857728e+01
9.855228e+01
9.852728e+01
9.850228e+01
9.847728e+01
9.983397e+01
9.980897e+01
9.978397e+01
9.975897e+01
9.973397e+01
9.970897e+01
9.968397e+01
9.965897e+01
9.963397e+01
9.960897e+01
9.958397e+01
9.955897e+01
9.953397e+01
9.950897e+01
9.948397e+01
9.945897e+01
9.943397e+01
9.940897e+01
9.938397e+01
9.935897e+01
9.933397e+01
9.930897e+01
9.928397e+01
9.925897e+01
9.923397e+01
9.920897e+01
9.918397e+01
9.915897e+01
9.913397e+01
9.910897e+01
9.908397e+01
9.905897e+01
9.903397e+01
9.900897e+01
9.898397e+01
9.895897e+01
9.893397e+01
9.890897e+01
9.888397e+01
9.885897e+01
9.883397e+01
9.880897e+01
9.878397e+01
9.875897e+01
9.873397e+01
9.870897e+01
9.868397e+01
9.865897e+01
9.863397e+01
9.860897e+01
9.858397e+01
9.855897e+01
9.853397e+01
9.850897e+01
9.848397e+01
9.845897e+01
9.843397e+01
