# vtk DataFile Version 3.4
Image
ASCII
DATASET STRUCTURED_POINTS
DIMENSIONS 57 40 1
ORIGIN 0.000000 0.000000 0.000000
SPACING 1.000000 1.000000 1.000000
POINT_DATA 2280
SCALARS facies float 1
LOOKUP_TABLE default
1.011787e+02
1.011700e+02
1.011613e+02
1.011526e+02
1.011439e+02
1.011353e+02
1.011266e+02
1.011179e+02
1.011092e+02
1.011005e+02
1.010919e+02
1.010832e+02
1.010745e+02
1.010658e+02
1.010571e+02
1.010484e+02
1.010398e+02
1.010311e+02
1.010224e+02
1.010137e+02
1.010050e+02
1.009963e+02
1.009877e+02
1.009790e+02
1.009703e+02
1.009616e+02
1.009529e+02
1.009442e+02
1.009356e+02
1.009269e+02
1.009182e+02
1.009095e+02
1.009008e+02
1.008922e+02
1.008835e+02
1.008748e+02
1.008661e+02
1.008574e+02
1.008487e+02
1.008401e+02
1.008314e+02
1.008227e+02
1.008140e+02
1.008053e+02
1.007966e+02
1.007880e+02
1.007793e+02
1.007706e+02
1.007619e+02
1.007532e+02
1.007446e+02
1.007359e+02
1.007272e+02
1.007185e+02
1.007098e+02
1.007011e+02
1.006925e+02
1.011294e+02
1.011208e+02
1.011121e+02
1.011034e+02
1.010947e+02
1.010860e+02
1.010773e+02
1.010687e+02
1.010600e+02
1.010513e+02
1.010426e+02
1.010339e+02
1.010252e+02
1.010166e+02
1.010079e+02
1.009992e+02
1.009905e+02
1.009818e+02
1.009732e+02
1.009645e+02
1.009558e+02
1.009471e+02
1.009384e+02
1.009297e+02
1.009211e+02
1.009124e+02
1.009037e+02
1.008950e+02
1.008863e+02
1.008776e+02
1.008690e+02
1.008603e+02
1.008516e+02
1.008429e+02
1.008342e+02
1.008256e+02
1.008169e+02
1.008082e+02
1.007995e+02
1.007908e+02
1.007821e+02
1.007735e+02
1.007648e+02
1.007561e+02
1.007474e+02
1.007387e+02
1.007300e+02
1.007214e+02
1.007127e+02
1.007040e+02
1.006953e+02
1.006866e+02
1.006779e+02
1.006693e+02
1.006606e+02
1.006519e+02
1.006432e+02
1.010802e+02
1.010715e+02
1.010628e+02
1.010541e+02
1.010455e+02
1.010368e+02
1.010281e+02
1.010194e+02
1.010107e+02
1.010021e+02
1.009934e+02
1.009847e+02
1.009760e+02
1.009673e+02
1.009586e+02
1.009500e+02
1.009413e+02
1.009326e+02
1.009239e+02
1.009152e+02
1.009065e+02
1.008979e+02
1.008892e+02
1.008805e+02
1.008718e+02
1.008631e+02
1.008545e+02
1.008458e+02
1.008371e+02
1.008284e+02
1.008197e+02
1.008110e+02
1.008024e+02
1.007937e+02
1.007850e+02
1.007763e+02
1.007676e+02
1.007589e+02
1.007503e+02
1.007416e+02
1.007329e+02
1.007242e+02
1.007155e+02
1.007069e+02
1.006982e+02
1.006895e+02
1.006808e+02
1.006721e+02
1.006634e+02
1.006548e+02
1.006461e+02
1.006374e+02
1.006287e+02
1.006200e+02
1.006113e+02
1.006027e+02
1.005940e+02
1.010310e+02
1.010223e+02
1.010136e+02
1.010049e+02
1.009962e+02
1.009875e+02
1.009789e+02
1.009702e+02
1.009615e+02
1.009528e+02
1.009441e+02
1.009354e+02
1.009268e+02
1.009181e+02
1.009094e+02
1.009007e+02
1.008920e+02
1.008834e+02
1.008747e+02
1.008660e+02
1.008573e+02
1.008486e+02
1.008399e+02
1.008313e+02
1.008226e+02
1.008139e+02
1.008052e+02
1.007965e+02
1.007878e+02
1.007792e+02
1.007705e+02
1.007618e+02
1.007531e+02
1.007444e+02
1.007358e+02
1.007271e+02
1.007184e+02
1.007097e+02
1.007010e+02
1.006923e+02
1.006837e+02
1.006750e+02
1.006663e+02
1.006576e+02
1.006489e+02
1.006402e+02
1.006316e+02
1.006229e+02
1.006142e+02
1.006055e+02
1.005968e+02
1.005882e+02
1.005795e+02
1.005708e+02
1.005621e+02
1.005534e+02
1.005447e+02
1.009817e+02
1.009730e+02
1.009643e+02
1.009557e+02
1.009470e+02
1.009383e+02
1.009296e+02
1.009209e+02
1.009123e+02
1.009036e+02
1.008949e+02
1.008862e+02
1.008775e+02
1.008688e+02
1.008602e+02
1.008515e+02
1.008428e+02
1.008341e+02
1.008254e+02
1.008167e+02
1.008081e+02
1.007994e+02
1.007907e+02
1.007820e+02
1.007733e+02
1.007647e+02
1.007560e+02
1.007473e+02
1.007386e+02
1.007299e+02
1.007212e+02
1.007126e+02
1.007039e+02
1.006952e+02
1.006865e+02
1.006778e+02
1.006691e+02
1.006605e+02
1.006518e+02
1.006431e+02
1.006344e+02
1.006257e+02
1.006171e+02
1.006084e+02
1.005997e+02
1.005910e+02
1.005823e+02
1.005736e+02
1.005650e+02
1.005563e+02
1.005476e+02
1.005389e+02
1.005302e+02
1.005215e+02
1.005129e+02
1.005042e+02
1.004955e+02
1.009325e+02
1.009238e+02
1.009151e+02
1.009064e+02
1.008977e+02
1.008891e+02
1.008804e+02
1.008717e+02
1.008630e+02
1.008543e+02
1.008456e+02
1.008370e+02
1.008283e+02
1.008196e+02
1.008109e+02
1.008022e+02
1.007936e+02
1.007849e+02
1.007762e+02
1.007675e+02
1.007588e+02
1.007501e+02
1.007415e+02
1.007328e+02
1.007241e+02
1.007154e+02
1.007067e+02
1.006980e+02
1.006894e+02
1.006807e+02
1.006720e+02
1.006633e+02
1.006546e+02
1.006460e+02
1.006373e+02
1.006286e+02
1.006199e+02
1.006112e+02
1.006025e+02
1.005939e+02
1.005852e+02
1.005765e+02
1.005678e+02
1.005591e+02
1.005504e+02
1.005418e+02
1.005331e+02
1.005244e+02
1.005157e+02
1.005070e+02
1.004984e+02
1.004897e+02
1.004810e+02
1.004723e+02
1.004636e+02
1.004549e+02
1.004463e+02
1.008832e+02
1.008746e+02
1.008659e+02
1.008572e+02
1.008485e+02
1.008398e+02
1.008311e+02
1.008225e+02
1.008138e+02
1.008051e+02
1.007964e+02
1.007877e+02
1.007790e+02
1.007704e+02
1.007617e+02
1.007530e+02
1.007443e+02
1.007356e+02
1.007269e+02
1.007183e+02
1.007096e+02
1.007009e+02
1.006922e+02
1.006835e+02
1.006749e+02
1.006662e+02
1.006575e+02
1.006488e+02
1.006401e+02
1.006314e+02
1.006228e+02
1.006141e+02
1.006054e+02
1.005967e+02
1.005880e+02
1.005793e+02
1.005707e+02
1.005620e+02
1.005533e+02
1.005446e+02
1.005359e+02
1.005273e+02
1.005186e+02
1.005099e+02
1.005012e+02
1.004925e+02
1.004838e+02
1.004752e+02
1.004665e+02
1.004578e+02
1.004491e+02
1.004404e+02
1.004317e+02
1.004231e+02
1.004144e+02
1.004057e+02
1.003970e+02
1.008340e+02
1.008253e+02
1.008166e+02
1.008079e+02
1.007993e+02
1.007906e+02
1.007819e+02
1.007732e+02
1.007645e+02
1.007559e+02
1.007472e+02
1.007385e+02
1.007298e+02
1.007211e+02
1.007124e+02
1.007038e+02
1.006951e+02
1.006864e+02
1.006777e+02
1.006690e+02
1.006603e+02
1.006517e+02
1.006430e+02
1.006343e+02
1.006256e+02
1.006169e+02
1.006082e+02
1.005996e+02
1.005909e+02
1.005822e+02
1.005735e+02
1.005648e+02
1.005562e+02
1.005475e+02
1.005388e+02
1.005301e+02
1.005214e+02
1.005127e+02
1.005041e+02
1.004954e+02
1.004867e+02
1.004780e+02
1.004693e+02
1.004606e+02
1.004520e+02
1.004433e+02
1.004346e+02
1.004259e+02
1.004172e+02
1.004086e+02
1.003999e+02
1.003912e+02
1.003825e+02
1.003738e+02
1.003651e+02
1.003565e+02
1.003478e+02
1.007848e+02
1.007761e+02
1.007674e+02
1.007587e+02
1.007500e+02
1.007413e+02
1.007327e+02
1.007240e+02
1.007153e+02
1.007066e+02
1.006979e+02
1.006892e+02
1.006806e+02
1.006719e+02
1.006632e+02
1.006545e+02
1.006458e+02
1.006372e+02
1.006285e+02
1.006198e+02
1.006111e+02
1.006024e+02
1.005937e+02
1.005851e+02
1.005764e+02
1.005677e+02
1.005590e+02
1.005503e+02
1.005416e+02
1.005330e+02
1.005243e+02
1.005156e+02
1.005069e+02
1.004982e+02
1.004895e+02
1.004809e+02
1.004722e+02
1.004635e+02
1.004548e+02
1.004461e+02
1.004375e+02
1.004288e+02
1.004201e+02
1.004114e+02
1.004027e+02
1.003940e+02
1.003854e+02
1.003767e+02
1.003680e+02
1.003593e+02
1.003506e+02
1.003419e+02
1.003333e+02
1.003246e+02
1.003159e+02
1.003072e+02
1.002985e+02
1.007355e+02
1.007268e+02
1.007181e+02
1.007095e+02
1.007008e+02
1.006921e+02
1.006834e+02
1.006747e+02
1.006661e+02
1.006574e+02
1.006487e+02
1.006400e+02
1.006313e+02
1.006226e+02
1.006140e+02
1.006053e+02
1.005966e+02
1.005879e+02
1.005792e+02
1.005705e+02
1.005619e+02
1.005532e+02
1.005445e+02
1.005358e+02
1.005271e+02
1.005185e+02
1.005098e+02
1.005011e+02
1.004924e+02
1.004837e+02
1.004750e+02
1.004664e+02
1.004577e+02
1.004490e+02
1.004403e+02
1.004316e+02
1.004229e+02
1.004143e+02
1.004056e+02
1.003969e+02
1.003882e+02
1.003795e+02
1.003709e+02
1.003622e+02
1.003535e+02
1.003448e+02
1.003361e+02
1.003274e+02
1.003188e+02
1.003101e+02
1.003014e+02
1.002927e+02
1.002840e+02
1.002753e+02
1.002667e+02
1.002580e+02
1.002493e+02
1.006863e+02
1.006776e+02
1.006689e+02
1.006602e+02
1.006515e+02
1.006429e+02
1.006342e+02
1.006255e+02
1.006168e+02
1.006081e+02
1.005994e+02
1.005908e+02
1.005821e+02
1.005734e+02
1.005647e+02
1.005560e+02
1.005474e+02
1.005387e+02
1.005300e+02
1.005213e+02
1.005126e+02
1.005039e+02
1.004953e+02
1.004866e+02
1.004779e+02
1.004692e+02
1.004605e+02
1.004518e+02
1.004432e+02
1.004345e+02
1.004258e+02
1.004171e+02
1.004084e+02
1.003998e+02
1.003911e+02
1.003824e+02
1.003737e+02
1.003650e+02
1.003563e+02
1.003477e+02
1.003390e+02
1.003303e+02
1.003216e+02
1.003129e+02
1.003042e+02
1.002956e+02
1.002869e+02
1.002782e+02
1.002695e+02
1.002608e+02
1.002522e+02
1.002435e+02
1.002348e+02
1.002261e+02
1.002174e+02
1.002087e+02
1.002001e+02
1.006370e+02
1.006283e+02
1.006197e+02
1.006110e+02
1.006023e+02
1.005936e+02
1.005849e+02
1.005763e+02
1.005676e+02
1.005589e+02
1.005502e+02
1.005415e+02
1.005328e+02
1.005242e+02
1.005155e+02
1.005068e+02
1.004981e+02
1.004894e+02
1.004807e+02
1.004721e+02
1.004634e+02
1.004547e+02
1.004460e+02
1.004373e+02
1.004287e+02
1.004200e+02
1.004113e+02
1.004026e+02
1.003939e+02
1.003852e+02
1.003766e+02
1.003679e+02
1.003592e+02
1.003505e+02
1.003418e+02
1.003331e+02
1.003245e+02
1.003158e+02
1.003071e+02
1.002984e+02
1.002897e+02
1.002811e+02
1.002724e+02
1.002637e+02
1.002550e+02
1.002463e+02
1.002376e+02
1.002290e+02
1.002203e+02
1.002116e+02
1.002029e+02
1.001942e+02
1.001855e+02
1.001769e+02
1.001682e+02
1.001595e+02
1.001508e+02
1.005878e+02
1.005791e+02
1.005704e+02
1.005617e+02
1.005531e+02
1.005444e+02
1.005357e+02
1.005270e+02
1.005183e+02
1.005096e+02
1.005010e+02
1.004923e+02
1.004836e+02
1.004749e+02
1.004662e+02
1.004576e+02
1.004489e+02
1.004402e+02
1.004315e+02
1.004228e+02
1.004141e+02
1.004055e+02
1.003968e+02
1.003881e+02
1.003794e+02
1.003707e+02
1.003620e+02
1.003534e+02
1.003447e+02
1.003360e+02
1.003273e+02
1.003186e+02
1.003100e+02
1.003013e+02
1.002926e+02
1.002839e+02
1.002752e+02
1.002665e+02
1.002579e+02
1.002492e+02
1.002405e+02
1.002318e+02
1.002231e+02
1.002144e+02
1.002058e+02
1.001971e+02
1.001884e+02
1.001797e+02
1.001710e+02
1.001624e+02
1.001537e+02
1.001450e+02
1.001363e+02
1.001276e+02
1.001189e+02
1.001103e+02
1.001016e+02
1.005385e+02
1.005299e+02
1.005212e+02
1.005125e+02
1.005038e+02
1.004951e+02
1.004865e+02
1.004778e+02
1.004691e+02
1.004604e+02
1.004517e+02
1.004430e+02
1.004344e+02
1.004257e+02
1.004170e+02
1.004083e+02
1.003996e+02
1.003909e+02
1.003823e+02
1.003736e+02
1.003649e+02
1.003562e+02
1.003475e+02
1.003389e+02
1.003302e+02
1.003215e+02
1.003128e+02
1.003041e+02
1.002954e+02
1.002868e+02
1.002781e+02
1.002694e+02
1.002607e+02
1.002520e+02
1.002433e+02
1.002347e+02
1.002260e+02
1.002173e+02
1.002086e+02
1.001999e+02
1.001913e+02
1.001826e+02
1.001739e+02
1.001652e+02
1.001565e+02
1.001478e+02
1.001392e+02
1.001305e+02
1.001218e+02
1.001131e+02
1.001044e+02
1.000957e+02
1.000871e+02
1.000784e+02
1.000697e+02
1.000610e+02
1.000523e+02
1.004893e+02
1.004806e+02
1.004719e+02
1.004633e+02
1.004546e+02
1.004459e+02
1.004372e+02
1.004285e+02
1.004199e+02
1.004112e+02
1.004025e+02
1.003938e+02
1.003851e+02
1.003764e+02
1.003678e+02
1.003591e+02
1.003504e+02
1.003417e+02
1.003330e+02
1.003243e+02
1.003157e+02
1.003070e+02
1.002983e+02
1.002896e+02
1.002809e+02
1.002722e+02
1.002636e+02
1.002549e+02
1.002462e+02
1.002375e+02
1.002288e+02
1.002202e+02
1.002115e+02
1.002028e+02
1.001941e+02
1.001854e+02
1.001767e+02
1.001681e+02
1.001594e+02
1.001507e+02
1.001420e+02
1.001333e+02
1.001246e+02
1.001160e+02
1.001073e+02
1.000986e+02
1.000899e+02
1.000812e+02
1.000726e+02
1.000639e+02
1.000552e+02
1.000465e+02
1.000378e+02
1.000291e+02
1.000205e+02
1.000118e+02
1.000031e+02
1.004401e+02
1.004314e+02
1.004227e+02
1.004140e+02
1.004053e+02
1.003967e+02
1.003880e+02
1.003793e+02
1.003706e+02
1.003619e+02
1.003532e+02
1.003446e+02
1.003359e+02
1.003272e+02
1.003185e+02
1.003098e+02
1.003012e+02
1.002925e+02
1.002838e+02
1.002751e+02
1.002664e+02
1.002577e+02
1.002491e+02
1.002404e+02
1.002317e+02
1.002230e+02
1.002143e+02
1.002056e+02
1.001970e+02
1.001883e+02
1.001796e+02
1.001709e+02
1.001622e+02
1.001535e+02
1.001449e+02
1.001362e+02
1.001275e+02
1.001188e+02
1.001101e+02
1.001015e+02
1.000928e+02
1.000841e+02
1.000754e+02
1.000667e+02
1.000580e+02
1.000494e+02
1.000407e+02
1.000320e+02
1.000233e+02
1.000146e+02
1.000059e+02
9.999727e+01
9.998858e+01
9.997990e+01
9.997122e+01
9.996254e+01
9.995385e+01
1.003908e+02
1.003821e+02
1.003735e+02
1.003648e+02
1.003561e+02
1.003474e+02
1.003387e+02
1.003301e+02
1.003214e+02
1.003127e+02
1.003040e+02
1.002953e+02
1.002866e+02
1.002780e+02
1.002693e+02
1.002606e+02
1.002519e+02
1.002432e+02
1.002345e+02
1.002259e+02
1.002172e+02
1.002085e+02
1.001998e+02
1.001911e+02
1.001825e+02
1.001738e+02
1.001651e+02
1.001564e+02
1.001477e+02
1.001390e+02
1.001304e+02
1.001217e+02
1.001130e+02
1.001043e+02
1.000956e+02
1.000869e+02
1.000783e+02
1.000696e+02
1.000609e+02
1.000522e+02
1.000435e+02
1.000348e+02
1.000262e+02
1.000175e+02
1.000088e+02
1.000001e+02
9.999144e+01
9.998276e+01
9.997407e+01
9.996539e+01
9.995671e+01
9.994803e+01
9.993934e+01
9.993066e+01
9.992198e+01
9.991330e+01
9.990461e+01
1.003416e+02
1.003329e+02
1.003242e+02
1.003155e+02
1.003069e+02
1.002982e+02
1.002895e+02
1.002808e+02
1.002721e+02
1.002634e+02
1.002548e+02
1.002461e+02
1.002374e+02
1.002287e+02
1.002200e+02
1.002114e+02
1.002027e+02
1.001940e+02
1.001853e+02
1.001766e+02
1.001679e+02
1.001593e+02
1.001506e+02
1.001419e+02
1.001332e+02
1.001245e+02
1.001158e+02
1.001072e+02
1.000985e+02
1.000898e+02
1.000811e+02
1.000724e+02
1.000638e+02
1.000551e+02
1.000464e+02
1.000377e+02
1.000290e+02
1.000203e+02
1.000117e+02
1.000030e+02
9.999429e+01
9.998561e+01
9.997693e+01
9.996824e+01
9.995956e+01
9.995088e+01
9.994220e+01
9.993352e+01
9.992483e+01
9.991615e+01
9.990747e+01
9.989879e+01
9.989010e+01
9.988142e+01
9.987274e+01
9.986406e+01
9.985537e+01
1.002923e+02
1.002837e+02
1.002750e+02
1.002663e+02
1.002576e+02
1.002489e+02
1.002403e+02
1.002316e+02
1.002229e+02
1.002142e+02
1.002055e+02
1.001968e+02
1.001882e+02
1.001795e+02
1.001708e+02
1.001621e+02
1.001534e+02
1.001447e+02
1.001361e+02
1.001274e+02
1.001187e+02
1.001100e+02
1.001013e+02
1.000927e+02
1.000840e+02
1.000753e+02
1.000666e+02
1.000579e+02
1.000492e+02
1.000406e+02
1.000319e+02
1.000232e+02
1.000145e+02
1.000058e+02
9.999715e+01
9.998846e+01
9.997978e+01
9.997110e+01
9.996242e+01
9.995373e+01
9.994505e+01
9.993637e+01
9.992769e+01
9.991900e+01
9.991032e+01
9.990164e+01
9.989296e+01
9.988427e+01
9.987559e+01
9.986691e+01
9.985823e+01
9.984954e+01
9.984086e+01
9.983218e+01
9.982350e+01
9.981482e+01
9.980613e+01
1.002431e+02
1.002344e+02
1.002257e+02
1.002171e+02
1.002084e+02
1.001997e+02
1.001910e+02
1.001823e+02
1.001736e+02
1.001650e+02
1.001563e+02
1.001476e+02
1.001389e+02
1.001302e+02
1.001216e+02
1.001129e+02
1.001042e+02
1.000955e+02
1.000868e+02
1.000781e+02
1.000695e+02
1.000608e+02
1.000521e+02
1.000434e+02
1.000347e+02
1.000260e+02
1.000174e+02
1.000087e+02
1.000000e+02
9.999132e+01
9.998264e+01
9.997395e+01
9.996527e+01
9.995659e+01
9.994791e+01
9.993922e+01
9.993054e+01
9.992186e+01
9.991318e+01
9.990449e+01
9.989581e+01
9.988713e+01
9.987845e+01
9.986976e+01
9.986108e+01
9.985240e+01
9.984372e+01
9.983503e+01
9.982635e+01
9.981767e+01
9.980899e+01
9.980030e+01
9.979162e+01
9.978294e+01
9.977426e+01
9.976557e+01
9.975689e+01
1.001939e+02
1.001852e+02
1.001765e+02
1.001678e+02
1.001591e+02
1.001505e+02
1.001418e+02
1.001331e+02
1.001244e+02
1.001157e+02
1.001070e+02
1.000984e+02
1.000897e+02
1.000810e+02
1.000723e+02
1.000636e+02
1.000549e+02
1.000463e+02
1.000376e+02
1.000289e+02
1.000202e+02
1.000115e+02
1.000029e+02
9.999417e+01
9.998549e+01
9.997681e+01
9.996812e+01
9.995944e+01
9.995076e+01
9.994208e+01
9.993339e+01
9.992471e+01
9.991603e+01
9.990735e+01
9.989867e+01
9.988998e+01
9.988130e+01
9.987262e+01
9.986394e+01
9.985525e+01
9.984657e+01
9.983789e+01
9.982921e+01
9.982052e+01
9.981184e+01
9.980316e+01
9.979448e+01
9.978579e+01
9.977711e+01
9.976843e+01
9.975975e+01
9.975106e+01
9.974238e+01
9.973370e+01
9.972502e+01
9.971633e+01
9.970765e+01
1.001446e+02
1.001359e+02
1.001273e+02
1.001186e+02
1.001099e+02
1.001012e+02
1.000925e+02
1.000838e+02
1.000752e+02
1.000665e+02
1.000578e+02
1.000491e+02
1.000404e+02
1.000318e+02
1.000231e+02
1.000144e+02
1.000057e+02
9.999703e+01
9.998834e+01
9.997966e+01
9.997098e+01
9.996230e+01
9.995361e+01
9.994493e+01
9.993625e+01
9.992757e+01
9.991888e+01
9.991020e+01
9.990152e+01
9.989284e+01
9.988415e+01
9.987547e+01
9.986679e+01
9.985811e+01
9.984942e+01
9.984074e+01
9.983206e+01
9.982338e+01
9.981470e+01
9.980601e+01
9.979733e+01
9.978865e+01
9.977997e+01
9.977128e+01
9.976260e+01
9.975392e+01
9.974524e+01
9.973655e+01
9.972787e+01
9.971919e+01
9.971051e+01
9.970182e+01
9.969314e+01
9.968446e+01
9.967578e+01
9.966709e+01
9.965841e+01
1.000954e+02
1.000867e+02
1.000780e+02
1.000693e+02
1.000607e+02
1.000520e+02
1.000433e+02
1.000346e+02
1.000259e+02
1.000172e+02
1.000086e+02
9.999988e+01
9.999120e+01
9.998251e+01
9.997383e+01
9.996515e+01
9.995647e+01
9.994779e+01
9.993910e+01
9.993042e+01
9.992174e+01
9.991306e+01
9.990437e+01
9.989569e+01
9.988701e+01
9.987833e+01
9.986964e+01
9.986096e+01
9.985228e+01
9.984360e+01
9.983491e+01
9.982623e+01
9.981755e+01
9.980887e+01
9.980018e+01
9.979150e+01
9.978282e+01
9.977414e+01
9.976545e+01
9.975677e+01
9.974809e+01
9.973941e+01
9.973073e+01
9.972204e+01
9.971336e+01
9.970468e+01
9.969600e+01
9.968731e+01
9.967863e+01
9.966995e+01
9.966127e+01
9.965258e+01
9.964390e+01
9.963522e+01
9.962654e+01
9.961785e+01
9.960917e+01
1.000461e+02
1.000375e+02
1.000288e+02
1.000201e+02
1.000114e+02
1.000027e+02
9.999405e+01
9.998537e+01
9.997669e+01
9.996800e+01
9.995932e+01
9.995064e+01
9.994196e+01
9.993327e+01
9.992459e+01
9.991591e+01
9.990723e+01
9.989854e+01
9.988986e+01
9.988118e+01
9.987250e+01
9.986382e+01
9.985513e+01
9.984645e+01
9.983777e+01
9.982909e+01
9.982040e+01
9.981172e+01
9.980304e+01
9.979436e+01
9.978567e+01
9.977699e+01
9.976831e+01
9.975963e+01
9.975094e+01
9.974226e+01
9.973358e+01
9.972490e+01
9.971621e+01
9.970753e+01
9.969885e+01
9.969017e+01
9.968148e+01
9.967280e+01
9.966412e+01
9.965544e+01
9.964676e+01
9.963807e+01
9.962939e+01
9.962071e+01
9.961203e+01
9.960334e+01
9.959466e+01
9.958598e+01
9.957730e+01
9.956861e+01
9.955993e+01
9.999691e+01
9.998822e+01
9.997954e+01
9.997086e+01
9.996218e+01
9.995349e+01
9.994481e+01
9.993613e+01
9.992745e+01
9.991876e+01
9.991008e+01
9.990140e+01
9.989272e+01
9.988403e+01
9.987535e+01
9.986667e+01
9.985799e+01
9.984930e+01
9.984062e+01
9.983194e+01
9.982326e+01
9.981457e+01
9.980589e+01
9.979721e+01
9.978853e+01
9.977985e+01
9.977116e+01
9.976248e+01
9.975380e+01
9.974512e+01
9.973643e+01
9.972775e+01
9.971907e+01
9.971039e+01
9.970170e+01
9.969302e+01
9.968434e+01
9.967566e+01
9.966697e+01
9.965829e+01
9.964961e+01
9.964093e+01
9.963224e+01
9.962356e+01
9.961488e+01
9.960620e+01
9.959751e+01
9.958883e+01
9.958015e+01
9.957147e+01
9.956279e+01
9.955410e+01
9.954542e+01
9.953674e+01
9.952806e+01
9.951937e+01
9.951069e+01
9.994767e+01
9.993898e+01
9.993030e+01
9.992162e+01
9.991294e+01
9.990425e+01
9.989557e+01
9.988689e+01
9.987821e+01
9.986952e+01
9.986084e+01
9.985216e+01
9.984348e+01
9.983479e+01
9.982611e+01
9.981743e+01
9.980875e+01
9.980006e+01
9.979138e+01
9.978270e+01
9.977402e+01
9.976533e+01
9.975665e+01
9.974797e+01
9.973929e+01
9.973060e+01
9.972192e+01
9.971324e+01
9.970456e+01
9.969588e+01
9.968719e+01
9.967851e+01
9.966983e+01
9.966115e+01
9.965246e+01
9.964378e+01
9.963510e+01
9.962642e+01
9.961773e+01
9.960905e+01
9.960037e+01
9.959169e+01
9.958300e+01
9.957432e+01
9.956564e+01
9.955696e+01
9.954827e+01
9.953959e+01
9.953091e+01
9.952223e+01
9.951354e+01
9.950486e+01
9.949618e+01
9.948750e+01
9.947882e+01
9.947013e+01
9.946145e+01
9.989842e+01
9.988974e+01
9.988106e+01
9.987238e+01
9.986370e+01
9.985501e+01
9.984633e+01
9.983765e+01
9.982897e+01
9.982028e+01
9.981160e+01
9.980292e+01
9.979424e+01
9.978555e+01
9.977687e+01
9.976819e+01
9.975951e+01
9.975082e+01
9.974214e+01
9.973346e+01
9.972478e+01
9.971609e+01
9.970741e+01
9.969873e+01
9.969005e+01
9.968136e+01
9.967268e+01
9.966400e+01
9.965532e+01
9.964663e+01
9.963795e+01
9.962927e+01
9.962059e+01
9.961191e+01
9.960322e+01
9.959454e+01
9.958586e+01
9.957718e+01
9.956849e+01
9.955981e+01
9.955113e+01
9.954245e+01
9.953376e+01
9.952508e+01
9.951640e+01
9.950772e+01
9.949903e+01
9.949035e+01
9.948167e+01
9.947299e+01
9.946430e+01
9.945562e+01
9.944694e+01
9.943826e+01
9.942957e+01
9.942089e+01
9.941221e+01
9.984918e+01
9.984050e+01
9.983182e+01
9.982314e+01
9.981445e+01
9.980577e+01
9.979709e+01
9.978841e+01
9.977973e+01
9.977104e+01
9.976236e+01
9.975368e+01
9.974500e+01
9.973631e+01
9.972763e+01
9.971895e+01
9.971027e+01
9.970158e+01
9.969290e+01
9.968422e+01
9.967554e+01
9.966685e+01
9.965817e+01
9.964949e+01
9.964081e+01
9.963212e+01
9.962344e+01
9.961476e+01
9.960608e+01
9.959739e+01
9.958871e+01
9.958003e+01
9.957135e+01
9.956266e+01
9.955398e+01
9.954530e+01
9.953662e+01
9.952794e+01
9.951925e+01
9.951057e+01
9.950189e+01
9.949321e+01
9.948452e+01
9.947584e+01
9.946716e+01
9.945848e+01
9.944979e+01
9.944111e+01
9.943243e+01
9.942375e+01
9.941506e+01
9.940638e+01
9.939770e+01
9.938902e+01
9.938033e+01
9.937165e+01
9.936297e+01
9.979994e+01
9.979126e+01
9.978258e+01
9.977390e+01
9.976521e+01
9.975653e+01
9.974785e+01
9.973917e+01
9.973048e+01
9.972180e+01
9.971312e+01
9.970444e+01
9.969576e+01
9.968707e+01
9.967839e+01
9.966971e+01
9.966103e+01
9.965234e+01
9.964366e+01
9.963498e+01
9.962630e+01
9.961761e+01
9.960893e+01
9.960025e+01
9.959157e+01
9.958288e+01
9.957420e+01
9.956552e+01
9.955684e+01
9.954815e+01
9.953947e+01
9.953079e+01
9.952211e+01
9.951342e+01
9.950474e+01
9.949606e+01
9.948738e+01
9.947869e+01
9.947001e+01
9.946133e+01
9.945265e+01
9.944397e+01
9.943528e+01
9.942660e+01
9.941792e+01
9.940924e+01
9.940055e+01
9.939187e+01
9.938319e+01
9.937451e+01
9.936582e+01
9.935714e+01
9.934846e+01
9.933978e+01
9.933109e+01
9.932241e+01
9.931373e+01
9.975070e+01
9.974202e+01
9.973334e+01
9.972466e+01
9.971597e+01
9.970729e+01
9.969861e+01
9.968993e+01
9.968124e+01
9.967256e+01
9.966388e+01
9.965520e+01
9.964651e+01
9.963783e+01
9.962915e+01
9.962047e+01
9.961179e+01
9.960310e+01
9.959442e+01
9.958574e+01
9.957706e+01
9.956837e+01
9.955969e+01
9.955101e+01
9.954233e+01
9.953364e+01
9.952496e+01
9.951628e+01
9.950760e+01
9.949891e+01
9.949023e+01
9.948155e+01
9.947287e+01
9.946418e+01
9.945550e+01
9.944682e+01
9.943814e+01
9.942945e+01
9.942077e+01
9.941209e+01
9.940341e+01
9.939472e+01
9.938604e+01
9.937736e+01
9.936868e+01
9.936000e+01
9.935131e+01
9.934263e+01
9.933395e+01
9.932527e+01
9.931658e+01
9.930790e+01
9.929922e+01
9.929054e+01
9.928185e+01
9.927317e+01
9.926449e+01
9.970146e+01
9.969278e+01
9.968410e+01
9.967542e+01
9.966673e+01
9.965805e+01
9.964937e+01
9.964069e+01
9.963200e+01
9.962332e+01
9.961464e+01
9.960596e+01
9.959727e+01
9.958859e+01
9.957991e+01
9.957123e+01
9.956254e+01
9.955386e+01
9.954518e+01
9.953650e+01
9.952782e+01
9.951913e+01
9.951045e+01
9.950177e+01
9.949309e+01
9.948440e+01
9.947572e+01
9.946704e+01
9.945836e+01
9.944967e+01
9.944099e+01
9.943231e+01
9.942363e+01
9.941494e+01
9.940626e+01
9.939758e+01
9.938890e+01
9.938021e+01
9.937153e+01
9.936285e+01
9.935417e+01
9.934548e+01
9.933680e+01
9.932812e+01
9.931944e+01
9.931075e+01
9.930207e+01
9.929339e+01
9.928471e+01
9.927603e+01
9.926734e+01
9.925866e+01
9.924998e+01
9.924130e+01
9.923261e+01
9.922393e+01
9.921525e+01
9.965222e+01
9.964354e+01
9.963486e+01
9.962618e+01
9.961749e+01
9.960881e+01
9.960013e+01
9.959145e+01
9.958276e+01
9.957408e+01
9.956540e+01
9.955672e+01
9.954803e+01
9.953935e+01
9.953067e+01
9.952199e+01
9.951330e+01
9.950462e+01
9.949594e+01
9.948726e+01
9.947857e+01
9.946989e+01
9.946121e+01
9.945253e+01
9.944384e+01
9.943516e+01
9.942648e+01
9.941780e+01
9.940912e+01
9.940043e+01
9.939175e+01
9.938307e+01
9.937439e+01
9.936570e+01
9.935702e+01
9.934834e+01
9.933966e+01
9.933097e+01
9.932229e+01
9.931361e+01
9.930493e+01
9.929624e+01
9.928756e+01
9.927888e+01
9.927020e+01
9.926151e+01
9.925283e+01
9.924415e+01
9.923547e+01
9.922678e+01
9.921810e+01
9.920942e+01
9.920074e+01
9.919206e+01
9.918337e+01
9.917469e+01
9.916601e+01
9.960298e+01
9.959430e+01
9.958562e+01
9.957694e+01
9.956825e+01
9.955957e+01
9.955089e+01
9.954221e+01
9.953352e+01
9.952484e+01
9.951616e+01
9.950748e+01
9.949879e+01
9.949011e+01
9.948143e+01
9.947275e+01
9.946406e+01
9.945538e+01
9.944670e+01
9.943802e+01
9.942933e+01
9.942065e+01
9.941197e+01
9.940329e+01
9.939460e+01
9.938592e+01
9.937724e+01
9.936856e+01
9.935987e+01
9.935119e+01
9.934251e+01
9.933383e+01
9.932515e+01
9.931646e+01
9.930778e+01
9.929910e+01
9.929042e+01
9.928173e+01
9.927305e+01
9.926437e+01
9.925569e+01
9.924700e+01
9.923832e+01
9.922964e+01
9.922096e+01
9.921227e+01
9.920359e+01
9.919491e+01
9.918623e+01
9.917754e+01
9.916886e+01
9.916018e+01
9.915150e+01
9.914281e+01
9.913413e+01
9.912545e+01
9.911677e+01
9.955374e+01
9.954506e+01
9.953638e+01
9.952769e+01
9.951901e+01
9.951033e+01
9.950165e+01
9.949297e+01
9.948428e+01
9.947560e+01
9.946692e+01
9.945824e+01
9.944955e+01
9.944087e+01
9.943219e+01
9.942351e+01
9.941482e+01
9.940614e+01
9.939746e+01
9.938878e+01
9.938009e+01
9.937141e+01
9.936273e+01
9.935405e+01
9.934536e+01
9.933668e+01
9.932800e+01
9.931932e+01
9.931063e+01
9.930195e+01
9.929327e+01
9.928459e+01
9.927590e+01
9.926722e+01
9.925854e+01
9.924986e+01
9.924118e+01
9.923249e+01
9.922381e+01
9.921513e+01
9.920645e+01
9.919776e+01
9.918908e+01
9.918040e+01
9.917172e+01
9.916303e+01
9.915435e+01
9.914567e+01
9.913699e+01
9.912830e+01
9.911962e+01
9.911094e+01
9.910226e+01
9.909357e+01
9.908489e+01
9.907621e+01
9.906753e+01
9.950450e+01
9.949582e+01
9.948714e+01
9.947845e+01
9.946977e+01
9.946109e+01
9.945241e+01
9.944372e+01
9.943504e+01
9.942636e+01
9.941768e+01
9.940900e+01
9.940031e+01
9.939163e+01
9.938295e+01
9.937427e+01
9.936558e+01
9.935690e+01
9.934822e+01
9.933954e+01
9.933085e+01
9.932217e+01
9.931349e+01
9.930481e+01
9.929612e+01
9.928744e+01
9.927876e+01
9.927008e+01
9.926139e+01
9.925271e+01
9.924403e+01
9.923535e+01
9.922666e+01
9.921798e+01
9.920930e+01
9.920062e+01
9.919193e+01
9.918325e+01
9.917457e+01
9.916589e+01
9.915721e+01
9.914852e+01
9.913984e+01
9.913116e+01
9.912248e+01
9.911379e+01
9.910511e+01
9.909643e+01
9.908775e+01
9.907906e+01
9.907038e+01
9.906170e+01
9.905302e+01
9.904433e+01
9.903565e+01
9.902697e+01
9.901829e+01
9.945526e+01
9.944658e+01
9.943790e+01
9.942921e+01
9.942053e+01
9.941185e+01
9.940317e+01
9.939448e+01
9.938580e+01
9.937712e+01
9.936844e+01
9.935975e+01
9.935107e+01
9.934239e+01
9.933371e+01
9.932503e+01
9.931634e+01
9.930766e+01
9.929898e+01
9.929030e+01
9.928161e+01
9.927293e+01
9.926425e+01
9.925557e+01
9.924688e+01
9.923820e+01
9.922952e+01
9.922084e+01
9.921215e+01
9.920347e+01
9.919479e+01
9.918611e+01
9.917742e+01
9.916874e+01
9.916006e+01
9.915138e+01
9.914269e+01
9.913401e+01
9.912533e+01
9.911665e+01
9.910796e+01
9.909928e+01
9.909060e+01
9.908192e+01
9.907324e+01
9.906455e+01
9.905587e+01
9.904719e+01
9.903851e+01
9.902982e+01
9.902114e+01
9.901246e+01
9.900378e+01
9.899509e+01
9.898641e+01
9.897773e+01
9.896905e+01
9.940602e+01
9.939734e+01
9.938866e+01
9.937997e+01
9.937129e+01
9.936261e+01
9.935393e+01
9.934524e+01
9.933656e+01
9.932788e+01
9.931920e+01
9.931051e+01
9.930183e+01
9.929315e+01
9.928447e+01
9.927578e+01
9.926710e+01
9.925842e+01
9.924974e+01
9.924106e+01
9.923237e+01
9.922369e+01
9.921501e+01
9.920633e+01
9.919764e+01
9.918896e+01
9.918028e+01
9.917160e+01
9.916291e+01
9.915423e+01
9.914555e+01
9.913687e+01
9.912818e+01
9.911950e+01
9.911082e+01
9.910214e+01
9.909345e+01
9.908477e+01
9.907609e+01
9.906741e+01
9.905872e+01
9.905004e+01
9.904136e+01
9.903268e+01
9.902399e+01
9.901531e+01
9.900663e+01
9.899795e+01
9.898927e+01
9.898058e+01
9.897190e+01
9.896322e+01
9.895454e+01
9.894585e+01
9.893717e+01
9.892849e+01
9.891981e+01
9.935678e+01
9.934810e+01
9.933942e+01
9.933073e+01
9.932205e+01
9.931337e+01
9.930469e+01
9.929600e+01
9.928732e+01
9.927864e+01
9.926996e+01
9.926127e+01
9.925259e+01
9.924391e+01
9.923523e+01
9.922654e+01
9.921786e+01
9.920918e+01
9.920050e+01
9.919181e+01
9.918313e+01
9.917445e+01
9.916577e+01
9.915709e+01
9.914840e+01
9.913972e+01
9.913104e+01
9.912236e+01
9.911367e+01
9.910499e+01
9.909631e+01
9.908763e+01
9.907894e+01
9.907026e+01
9.906158e+01
9.905290e+01
9.904421e+01
9.903553e+01
9.902685e+01
9.901817e+01
9.900948e+01
9.900080e+01
9.899212e+01
9.898344e+01
9.897475e+01
9.896607e+01
9.895739e+01
9.894871e+01
9.894002e+01
9.893134e+01
9.892266e+01
9.891398e+01
9.890530e+01
9.889661e+01
9.888793e+01
9.887925e+01
9.887057e+01
9.930754e+01
9.929886e+01
9.929018e+01
9.928149e+01
9.927281e+01
9.926413e+01
9.925545e+01
9.924676e+01
9.923808e+01
9.922940e+01
9.922072e+01
9.921203e+01
9.920335e+01
9.919467e+01
9.918599e+01
9.917730e+01
9.916862e+01
9.915994e+01
9.915126e+01
9.914257e+01
9.913389e+01
9.912521e+01
9.911653e+01
9.910784e+01
9.909916e+01
9.909048e+01
9.908180e+01
9.907312e+01
9.906443e+01
9.905575e+01
9.904707e+01
9.903839e+01
9.902970e+01
9.902102e+01
9.901234e+01
9.900366e+01
9.899497e+01
9.898629e+01
9.897761e+01
9.896893e+01
9.896024e+01
9.895156e+01
9.894288e+01
9.893420e+01
9.892551e+01
9.891683e+01
9.890815e+01
9.889947e+01
9.889078e+01
9.888210e+01
9.887342e+01
9.886474e+01
9.885605e+01
9.884737e+01
9.883869e+01
9.883001e+01
9.882133e+01
9.925830e+01
9.924962e+01
9.924093e+01
9.923225e+01
9.922357e+01
9.921489e+01
9.920621e+01
9.919752e+01
9.918884e+01
9.918016e+01
9.917148e+01
9.916279e+01
9.915411e+01
9.914543e+01
9.913675e+01
9.912806e+01
9.911938e+01
9.911070e+01
9.910202e+01
9.909333e+01
9.908465e+01
9.907597e+01
9.906729e+01
9.905860e+01
9.904992e+01
9.904124e+01
9.903256e+01
9.902387e+01
9.901519e+01
9.900651e+01
9.899783e+01
9.898915e+01
9.898046e+01
9.897178e+01
9.896310e+01
9.895442e+01
9.894573e+01
9.893705e+01
9.892837e+01
9.891969e+01
9.891100e+01
9.890232e+01
9.889364e+01
9.888496e+01
9.887627e+01
9.886759e+01
9.885891e+01
9.885023e+01
9.884154e+01
9.883286e+01
9.882418e+01
9.881550e+01
9.880681e+01
9.879813e+01
9.878945e+01
9.878077e+01
9.877208e+01
