# vtk DataFile Version 3.4
Image
ASCII
DATASET STRUCTURED_POINTS
DIMENSIONS 57 40 1
ORIGIN 0.000000 0.000000 0.000000
SPACING 1.000000 1.000000 1.000000
POINT_DATA 2280
SCALARS facies float 1
LOOKUP_TABLE default
1.016405e+02
1.015935e+02
1.015465e+02
1.014995e+02
1.014526e+02
1.014056e+02
1.013586e+02
1.013116e+02
1.012646e+02
1.012176e+02
1.011706e+02
1.011237e+02
1.010767e+02
1.010297e+02
1.009827e+02
1.009357e+02
1.008887e+02
1.008418e+02
1.007948e+02
1.007478e+02
1.007008e+02
1.006538e+02
1.006068e+02
1.005598e+02
1.005129e+02
1.004659e+02
1.004189e+02
1.003719e+02
1.003249e+02
1.002779e+02
1.002309e+02
1.001840e+02
1.001370e+02
1.000900e+02
1.000430e+02
9.999603e+01
9.994904e+01
9.990206e+01
9.985507e+01
9.980809e+01
9.976110e+01
9.971412e+01
9.966713e+01
9.962015e+01
9.957317e+01
9.952618e+01
9.947920e+01
9.943221e+01
9.938523e+01
9.933824e+01
9.929126e+01
9.924427e+01
9.919729e+01
9.915030e+01
9.910332e+01
9.905633e+01
9.900935e+01
1.016234e+02
1.015764e+02
1.015294e+02
1.014824e+02
1.014354e+02
1.013885e+02
1.013415e+02
1.012945e+02
1.012475e+02
1.012005e+02
1.011535e+02
1.011066e+02
1.010596e+02
1.010126e+02
1.009656e+02
1.009186e+02
1.008716e+02
1.008246e+02
1.007777e+02
1.007307e+02
1.006837e+02
1.006367e+02
1.005897e+02
1.005427e+02
1.004958e+02
1.004488e+02
1.004018e+02
1.003548e+02
1.003078e+02
1.002608e+02
1.002138e+02
1.001669e+02
1.001199e+02
1.000729e+02
1.000259e+02
9.997893e+01
9.993194e+01
9.988496e+01
9.983797e+01
9.979099e+01
9.974400e+01
9.969702e+01
9.965003e+01
9.960305e+01
9.955606e+01
9.950908e+01
9.946209e+01
9.941511e+01
9.936813e+01
9.932114e+01
9.927416e+01
9.922717e+01
9.918019e+01
9.913320e+01
9.908622e+01
9.903923e+01
9.899225e+01
1.016063e+02
1.015593e+02
1.015123e+02
1.014653e+02
1.014183e+02
1.013714e+02
1.013244e+02
1.012774e+02
1.012304e+02
1.011834e+02
1.011364e+02
1.010895e+02
1.010425e+02
1.009955e+02
1.009485e+02
1.009015e+02
1.008545e+02
1.008075e+02
1.007606e+02
1.007136e+02
1.006666e+02
1.006196e+02
1.005726e+02
1.005256e+02
1.004787e+02
1.004317e+02
1.003847e+02
1.003377e+02
1.002907e+02
1.002437e+02
1.001967e+02
1.001498e+02
1.001028e+02
1.000558e+02
1.000088e+02
9.996182e+01
9.991484e+01
9.986786e+01
9.982087e+01
9.977389e+01
9.972690e+01
9.967992e+01
9.963293e+01
9.958595e+01
9.953896e+01
9.949198e+01
9.944499e+01
9.939801e+01
9.935102e+01
9.930404e+01
9.925706e+01
9.921007e+01
9.916309e+01
9.911610e+01
9.906912e+01
9.902213e+01
9.897515e+01
1.015892e+02
1.015422e+02
1.014952e+02
1.014482e+02
1.014012e+02
1.013543e+02
1.013073e+02
1.012603e+02
1.012133e+02
1.011663e+02
1.011193e+02
1.010724e+02
1.010254e+02
1.009784e+02
1.009314e+02
1.008844e+02
1.008374e+02
1.007904e+02
1.007435e+02
1.006965e+02
1.006495e+02
1.006025e+02
1.005555e+02
1.005085e+02
1.004616e+02
1.004146e+02
1.003676e+02
1.003206e+02
1.002736e+02
1.002266e+02
1.001796e+02
1.001327e+02
1.000857e+02
1.000387e+02
9.999171e+01
9.994472e+01
9.989774e+01
9.985075e+01
9.980377e+01
9.975679e+01
9.970980e+01
9.966282e+01
9.961583e+01
9.956885e+01
9.952186e+01
9.947488e+01
9.942789e+01
9.938091e+01
9.933392e+01
9.928694e+01
9.923995e+01
9.919297e+01
9.914598e+01
9.909900e+01
9.905202e+01
9.900503e+01
9.895805e+01
1.015721e+02
1.015251e+02
1.014781e+02
1.014311e+02
1.013841e+02
1.013372e+02
1.012902e+02
1.012432e+02
1.011962e+02
1.011492e+02
1.011022e+02
1.010553e+02
1.010083e+02
1.009613e+02
1.009143e+02
1.008673e+02
1.008203e+02
1.007733e+02
1.007264e+02
1.006794e+02
1.006324e+02
1.005854e+02
1.005384e+02
1.004914e+02
1.004445e+02
1.003975e+02
1.003505e+02
1.003035e+02
1.002565e+02
1.002095e+02
1.001625e+02
1.001156e+02
1.000686e+02
1.000216e+02
9.997461e+01
9.992762e+01
9.988064e+01
9.983365e+01
9.978667e+01
9.973968e+01
9.969270e+01
9.964571e+01
9.959873e+01
9.955175e+01
9.950476e+01
9.945778e+01
9.941079e+01
9.936381e+01
9.931682e+01
9.926984e+01
9.922285e+01
9.917587e+01
9.912888e+01
9.908190e+01
9.903491e+01
9.898793e+01
9.894095e+01
1.015550e+02
1.015080e+02
1.014610e+02
1.014140e+02
1.013670e+02
1.013201e+02
1.012731e+02
1.012261e+02
1.011791e+02
1.011321e+02
1.010851e+02
1.010382e+02
1.009912e+02
1.009442e+02
1.008972e+02
1.008502e+02
1.008032e+02
1.007562e+02
1.007093e+02
1.006623e+02
1.006153e+02
1.005683e+02
1.005213e+02
1.004743e+02
1.004274e+02
1.003804e+02
1.003334e+02
1.002864e+02
1.002394e+02
1.001924e+02
1.001454e+02
1.000985e+02
1.000515e+02
1.000045e+02
9.995751e+01
9.991052e+01
9.986354e+01
9.981655e+01
9.976957e+01
9.972258e+01
9.967560e+01
9.962861e+01
9.958163e+01
9.953464e+01
9.948766e+01
9.944068e+01
9.939369e+01
9.934671e+01
9.929972e+01
9.925274e+01
9.920575e+01
9.915877e+01
9.911178e+01
9.906480e+01
9.901781e+01
9.897083e+01
9.892384e+01
1.015379e+02
1.014909e+02
1.014439e+02
1.013969e+02
1.013499e+02
1.013030e+02
1.012560e+02
1.012090e+02
1.011620e+02
1.011150e+02
1.010680e+02
1.010211e+02
1.009741e+02
1.009271e+02
1.008801e+02
1.008331e+02
1.007861e+02
1.007391e+02
1.006922e+02
1.006452e+02
1.005982e+02
1.005512e+02
1.005042e+02
1.004572e+02
1.004103e+02
1.003633e+02
1.003163e+02
1.002693e+02
1.002223e+02
1.001753e+02
1.001283e+02
1.000814e+02
1.000344e+02
9.998739e+01
9.994041e+01
9.989342e+01
9.984644e+01
9.979945e+01
9.975247e+01
9.970548e+01
9.965850e+01
9.961151e+01
9.956453e+01
9.951754e+01
9.947056e+01
9.942357e+01
9.937659e+01
9.932961e+01
9.928262e+01
9.923564e+01
9.918865e+01
9.914167e+01
9.909468e+01
9.904770e+01
9.900071e+01
9.895373e+01
9.890674e+01
1.015208e+02
1.014738e+02
1.014268e+02
1.013798e+02
1.013328e+02
1.012859e+02
1.012389e+02
1.011919e+02
1.011449e+02
1.010979e+02
1.010509e+02
1.010040e+02
1.009570e+02
1.009100e+02
1.008630e+02
1.008160e+02
1.007690e+02
1.007220e+02
1.006751e+02
1.006281e+02
1.005811e+02
1.005341e+02
1.004871e+02
1.004401e+02
1.003932e+02
1.003462e+02
1.002992e+02
1.002522e+02
1.002052e+02
1.001582e+02
1.001112e+02
1.000643e+02
1.000173e+02
9.997029e+01
9.992330e+01
9.987632e+01
9.982934e+01
9.978235e+01
9.973537e+01
9.968838e+01
9.964140e+01
9.959441e+01
9.954743e+01
9.950044e+01
9.945346e+01
9.940647e+01
9.935949e+01
9.931250e+01
9.926552e+01
9.921853e+01
9.917155e+01
9.912457e+01
9.907758e+01
9.903060e+01
9.898361e+01
9.893663e+01
9.888964e+01
1.015037e+02
1.014567e+02
1.014097e+02
1.013627e+02
1.013157e+02
1.012688e+02
1.012218e+02
1.011748e+02
1.011278e+02
1.010808e+02
1.010338e+02
1.009868e+02
1.009399e+02
1.008929e+02
1.008459e+02
1.007989e+02
1.007519e+02
1.007049e+02
1.006580e+02
1.006110e+02
1.005640e+02
1.005170e+02
1.004700e+02
1.004230e+02
1.003760e+02
1.003291e+02
1.002821e+02
1.002351e+02
1.001881e+02
1.001411e+02
1.000941e+02
1.000472e+02
1.000002e+02
9.995319e+01
9.990620e+01
9.985922e+01
9.981223e+01
9.976525e+01
9.971826e+01
9.967128e+01
9.962430e+01
9.957731e+01
9.953033e+01
9.948334e+01
9.943636e+01
9.938937e+01
9.934239e+01
9.929540e+01
9.924842e+01
9.920143e+01
9.915445e+01
9.910746e+01
9.906048e+01
9.901350e+01
9.896651e+01
9.891953e+01
9.887254e+01
1.014866e+02
1.014396e+02
1.013926e+02
1.013456e+02
1.012986e+02
1.012517e+02
1.012047e+02
1.011577e+02
1.011107e+02
1.010637e+02
1.010167e+02
1.009697e+02
1.009228e+02
1.008758e+02
1.008288e+02
1.007818e+02
1.007348e+02
1.006878e+02
1.006409e+02
1.005939e+02
1.005469e+02
1.004999e+02
1.004529e+02
1.004059e+02
1.003589e+02
1.003120e+02
1.002650e+02
1.002180e+02
1.001710e+02
1.001240e+02
1.000770e+02
1.000301e+02
9.998307e+01
9.993609e+01
9.988910e+01
9.984212e+01
9.979513e+01
9.974815e+01
9.970116e+01
9.965418e+01
9.960719e+01
9.956021e+01
9.951323e+01
9.946624e+01
9.941926e+01
9.937227e+01
9.932529e+01
9.927830e+01
9.923132e+01
9.918433e+01
9.913735e+01
9.909036e+01
9.904338e+01
9.899639e+01
9.894941e+01
9.890243e+01
9.885544e+01
1.014695e+02
1.014225e+02
1.013755e+02
1.013285e+02
1.012815e+02
1.012346e+02
1.011876e+02
1.011406e+02
1.010936e+02
1.010466e+02
1.009996e+02
1.009526e+02
1.009057e+02
1.008587e+02
1.008117e+02
1.007647e+02
1.007177e+02
1.006707e+02
1.006238e+02
1.005768e+02
1.005298e+02
1.004828e+02
1.004358e+02
1.003888e+02
1.003418e+02
1.002949e+02
1.002479e+02
1.002009e+02
1.001539e+02
1.001069e+02
1.000599e+02
1.000130e+02
9.996597e+01
9.991899e+01
9.987200e+01
9.982502e+01
9.977803e+01
9.973105e+01
9.968406e+01
9.963708e+01
9.959009e+01
9.954311e+01
9.949612e+01
9.944914e+01
9.940215e+01
9.935517e+01
9.930819e+01
9.926120e+01
9.921422e+01
9.916723e+01
9.912025e+01
9.907326e+01
9.902628e+01
9.897929e+01
9.893231e+01
9.888532e+01
9.883834e+01
1.014524e+02
1.014054e+02
1.013584e+02
1.013114e+02
1.012644e+02
1.012175e+02
1.011705e+02
1.011235e+02
1.010765e+02
1.010295e+02
1.009825e+02
1.009355e+02
1.008886e+02
1.008416e+02
1.007946e+02
1.007476e+02
1.007006e+02
1.006536e+02
1.006067e+02
1.005597e+02
1.005127e+02
1.004657e+02
1.004187e+02
1.003717e+02
1.003247e+02
1.002778e+02
1.002308e+02
1.001838e+02
1.001368e+02
1.000898e+02
1.000428e+02
9.999585e+01
9.994887e+01
9.990188e+01
9.985490e+01
9.980792e+01
9.976093e+01
9.971395e+01
9.966696e+01
9.961998e+01
9.957299e+01
9.952601e+01
9.947902e+01
9.943204e+01
9.938505e+01
9.933807e+01
9.929108e+01
9.924410e+01
9.919712e+01
9.915013e+01
9.910315e+01
9.905616e+01
9.900918e+01
9.896219e+01
9.891521e+01
9.886822e+01
9.882124e+01
1.014353e+02
1.013883e+02
1.013413e+02
1.012943e+02
1.012473e+02
1.012004e+02
1.011534e+02
1.011064e+02
1.010594e+02
1.010124e+02
1.009654e+02
1.009184e+02
1.008715e+02
1.008245e+02
1.007775e+02
1.007305e+02
1.006835e+02
1.006365e+02
1.005896e+02
1.005426e+02
1.004956e+02
1.004486e+02
1.004016e+02
1.003546e+02
1.003076e+02
1.002607e+02
1.002137e+02
1.001667e+02
1.001197e+02
1.000727e+02
1.000257e+02
9.997875e+01
9.993177e+01
9.988478e+01
9.983780e+01
9.979081e+01
9.974383e+01
9.969685e+01
9.964986e+01
9.960288e+01
9.955589e+01
9.950891e+01
9.946192e+01
9.941494e+01
9.936795e+01
9.932097e+01
9.927398e+01
9.922700e+01
9.918001e+01
9.913303e+01
9.908605e+01
9.903906e+01
9.899208e+01
9.894509e+01
9.889811e+01
9.885112e+01
9.880414e+01
1.014182e+02
1.013712e+02
1.013242e+02
1.012772e+02
1.012302e+02
1.011833e+02
1.011363e+02
1.010893e+02
1.010423e+02
1.009953e+02
1.009483e+02
1.009013e+02
1.008544e+02
1.008074e+02
1.007604e+02
1.007134e+02
1.006664e+02
1.006194e+02
1.005725e+02
1.005255e+02
1.004785e+02
1.004315e+02
1.003845e+02
1.003375e+02
1.002905e+02
1.002436e+02
1.001966e+02
1.001496e+02
1.001026e+02
1.000556e+02
1.000086e+02
9.996165e+01
9.991467e+01
9.986768e+01
9.982070e+01
9.977371e+01
9.972673e+01
9.967974e+01
9.963276e+01
9.958578e+01
9.953879e+01
9.949181e+01
9.944482e+01
9.939784e+01
9.935085e+01
9.930387e+01
9.925688e+01
9.920990e+01
9.916291e+01
9.911593e+01
9.906894e+01
9.902196e+01
9.897497e+01
9.892799e+01
9.888101e+01
9.883402e+01
9.878704e+01
1.014011e+02
1.013541e+02
1.013071e+02
1.012601e+02
1.012131e+02
1.011662e+02
1.011192e+02
1.010722e+02
1.010252e+02
1.009782e+02
1.009312e+02
1.008842e+02
1.008373e+02
1.007903e+02
1.007433e+02
1.006963e+02
1.006493e+02
1.006023e+02
1.005554e+02
1.005084e+02
1.004614e+02
1.004144e+02
1.003674e+02
1.003204e+02
1.002734e+02
1.002265e+02
1.001795e+02
1.001325e+02
1.000855e+02
1.000385e+02
9.999154e+01
9.994455e+01
9.989757e+01
9.985058e+01
9.980360e+01
9.975661e+01
9.970963e+01
9.966264e+01
9.961566e+01
9.956867e+01
9.952169e+01
9.947470e+01
9.942772e+01
9.938074e+01
9.933375e+01
9.928677e+01
9.923978e+01
9.919280e+01
9.914581e+01
9.909883e+01
9.905184e+01
9.900486e+01
9.895787e+01
9.891089e+01
9.886390e+01
9.881692e+01
9.876994e+01
1.013840e+02
1.013370e+02
1.012900e+02
1.012430e+02
1.011960e+02
1.011491e+02
1.011021e+02
1.010551e+02
1.010081e+02
1.009611e+02
1.009141e+02
1.008671e+02
1.008202e+02
1.007732e+02
1.007262e+02
1.006792e+02
1.006322e+02
1.005852e+02
1.005383e+02
1.004913e+02
1.004443e+02
1.003973e+02
1.003503e+02
1.003033e+02
1.002563e+02
1.002094e+02
1.001624e+02
1.001154e+02
1.000684e+02
1.000214e+02
9.997443e+01
9.992745e+01
9.988047e+01
9.983348e+01
9.978650e+01
9.973951e+01
9.969253e+01
9.964554e+01
9.959856e+01
9.955157e+01
9.950459e+01
9.945760e+01
9.941062e+01
9.936363e+01
9.931665e+01
9.926967e+01
9.922268e+01
9.917570e+01
9.912871e+01
9.908173e+01
9.903474e+01
9.898776e+01
9.894077e+01
9.889379e+01
9.884680e+01
9.879982e+01
9.875283e+01
1.013669e+02
1.013199e+02
1.012729e+02
1.012259e+02
1.011789e+02
1.011319e+02
1.010850e+02
1.010380e+02
1.009910e+02
1.009440e+02
1.008970e+02
1.008500e+02
1.008031e+02
1.007561e+02
1.007091e+02
1.006621e+02
1.006151e+02
1.005681e+02
1.005211e+02
1.004742e+02
1.004272e+02
1.003802e+02
1.003332e+02
1.002862e+02
1.002392e+02
1.001923e+02
1.001453e+02
1.000983e+02
1.000513e+02
1.000043e+02
9.995733e+01
9.991035e+01
9.986336e+01
9.981638e+01
9.976940e+01
9.972241e+01
9.967543e+01
9.962844e+01
9.958146e+01
9.953447e+01
9.948749e+01
9.944050e+01
9.939352e+01
9.934653e+01
9.929955e+01
9.925256e+01
9.920558e+01
9.915860e+01
9.911161e+01
9.906463e+01
9.901764e+01
9.897066e+01
9.892367e+01
9.887669e+01
9.882970e+01
9.878272e+01
9.873573e+01
1.013498e+02
1.013028e+02
1.012558e+02
1.012088e+02
1.011618e+02
1.011148e+02
1.010679e+02
1.010209e+02
1.009739e+02
1.009269e+02
1.008799e+02
1.008329e+02
1.007860e+02
1.007390e+02
1.006920e+02
1.006450e+02
1.005980e+02
1.005510e+02
1.005040e+02
1.004571e+02
1.004101e+02
1.003631e+02
1.003161e+02
1.002691e+02
1.002221e+02
1.001752e+02
1.001282e+02
1.000812e+02
1.000342e+02
9.998722e+01
9.994023e+01
9.989325e+01
9.984626e+01
9.979928e+01
9.975229e+01
9.970531e+01
9.965832e+01
9.961134e+01
9.956436e+01
9.951737e+01
9.947039e+01
9.942340e+01
9.937642e+01
9.932943e+01
9.928245e+01
9.923546e+01
9.918848e+01
9.914149e+01
9.909451e+01
9.904752e+01
9.900054e+01
9.895356e+01
9.890657e+01
9.885959e+01
9.881260e+01
9.876562e+01
9.871863e+01
1.013327e+02
1.012857e+02
1.012387e+02
1.011917e+02
1.011447e+02
1.010977e+02
1.010508e+02
1.010038e+02
1.009568e+02
1.009098e+02
1.008628e+02
1.008158e+02
1.007689e+02
1.007219e+02
1.006749e+02
1.006279e+02
1.005809e+02
1.005339e+02
1.004869e+02
1.004400e+02
1.003930e+02
1.003460e+02
1.002990e+02
1.002520e+02
1.002050e+02
1.001581e+02
1.001111e+02
1.000641e+02
1.000171e+02
9.997012e+01
9.992313e+01
9.987615e+01
9.982916e+01
9.978218e+01
9.973519e+01
9.968821e+01
9.964122e+01
9.959424e+01
9.954725e+01
9.950027e+01
9.945329e+01
9.940630e+01
9.935932e+01
9.931233e+01
9.926535e+01
9.921836e+01
9.917138e+01
9.912439e+01
9.907741e+01
9.903042e+01
9.898344e+01
9.893645e+01
9.888947e+01
9.884249e+01
9.879550e+01
9.874852e+01
9.870153e+01
1.013156e+02
1.012686e+02
1.012216e+02
1.011746e+02
1.011276e+02
1.010806e+02
1.010337e+02
1.009867e+02
1.009397e+02
1.008927e+02
1.008457e+02
1.007987e+02
1.007518e+02
1.007048e+02
1.006578e+02
1.006108e+02
1.005638e+02
1.005168e+02
1.004698e+02
1.004229e+02
1.003759e+02
1.003289e+02
1.002819e+02
1.002349e+02
1.001879e+02
1.001410e+02
1.000940e+02
1.000470e+02
1.000000e+02
9.995302e+01
9.990603e+01
9.985905e+01
9.981206e+01
9.976508e+01
9.971809e+01
9.967111e+01
9.962412e+01
9.957714e+01
9.953015e+01
9.948317e+01
9.943618e+01
9.938920e+01
9.934222e+01
9.929523e+01
9.924825e+01
9.920126e+01
9.915428e+01
9.910729e+01
9.906031e+01
9.901332e+01
9.896634e+01
9.891935e+01
9.887237e+01
9.882538e+01
9.877840e+01
9.873141e+01
9.868443e+01
1.012985e+02
1.012515e+02
1.012045e+02
1.011575e+02
1.011105e+02
1.010635e+02
1.010166e+02
1.009696e+02
1.009226e+02
1.008756e+02
1.008286e+02
1.007816e+02
1.007347e+02
1.006877e+02
1.006407e+02
1.005937e+02
1.005467e+02
1.004997e+02
1.004527e+02
1.004058e+02
1.003588e+02
1.003118e+02
1.002648e+02
1.002178e+02
1.001708e+02
1.001239e+02
1.000769e+02
1.000299e+02
9.998290e+01
9.993591e+01
9.988893e+01
9.984195e+01
9.979496e+01
9.974798e+01
9.970099e+01
9.965401e+01
9.960702e+01
9.956004e+01
9.951305e+01
9.946607e+01
9.941908e+01
9.937210e+01
9.932511e+01
9.927813e+01
9.923114e+01
9.918416e+01
9.913718e+01
9.909019e+01
9.904321e+01
9.899622e+01
9.894924e+01
9.890225e+01
9.885527e+01
9.880828e+01
9.876130e+01
9.871431e+01
9.866733e+01
1.012814e+02
1.012344e+02
1.011874e+02
1.011404e+02
1.010934e+02
1.010464e+02
1.009995e+02
1.009525e+02
1.009055e+02
1.008585e+02
1.008115e+02
1.007645e+02
1.007176e+02
1.006706e+02
1.006236e+02
1.005766e+02
1.005296e+02
1.004826e+02
1.004356e+02
1.003887e+02
1.003417e+02
1.002947e+02
1.002477e+02
1.002007e+02
1.001537e+02
1.001068e+02
1.000598e+02
1.000128e+02
9.996580e+01
9.991881e+01
9.987183e+01
9.982484e+01
9.977786e+01
9.973087e+01
9.968389e+01
9.963691e+01
9.958992e+01
9.954294e+01
9.949595e+01
9.944897e+01
9.940198e+01
9.935500e+01
9.930801e+01
9.926103e+01
9.921404e+01
9.916706e+01
9.912007e+01
9.907309e+01
9.902611e+01
9.897912e+01
9.893214e+01
9.888515e+01
9.883817e+01
9.879118e+01
9.874420e+01
9.869721e+01
9.865023e+01
1.012643e+02
1.012173e+02
1.011703e+02
1.011233e+02
1.010763e+02
1.010293e+02
1.009824e+02
1.009354e+02
1.008884e+02
1.008414e+02
1.007944e+02
1.007474e+02
1.007005e+02
1.006535e+02
1.006065e+02
1.005595e+02
1.005125e+02
1.004655e+02
1.004185e+02
1.003716e+02
1.003246e+02
1.002776e+02
1.002306e+02
1.001836e+02
1.001366e+02
1.000897e+02
1.000427e+02
9.999568e+01
9.994870e+01
9.990171e+01
9.985473e+01
9.980774e+01
9.976076e+01
9.971377e+01
9.966679e+01
9.961980e+01
9.957282e+01
9.952584e+01
9.947885e+01
9.943187e+01
9.938488e+01
9.933790e+01
9.929091e+01
9.924393e+01
9.919694e+01
9.914996e+01
9.910297e+01
9.905599e+01
9.900900e+01
9.896202e+01
9.891504e+01
9.886805e+01
9.882107e+01
9.877408e+01
9.872710e+01
9.868011e+01
9.863313e+01
1.012472e+02
1.012002e+02
1.011532e+02
1.011062e+02
1.010592e+02
1.010122e+02
1.009653e+02
1.009183e+02
1.008713e+02
1.008243e+02
1.007773e+02
1.007303e+02
1.006834e+02
1.006364e+02
1.005894e+02
1.005424e+02
1.004954e+02
1.004484e+02
1.004014e+02
1.003545e+02
1.003075e+02
1.002605e+02
1.002135e+02
1.001665e+02
1.001195e+02
1.000725e+02
1.000256e+02
9.997858e+01
9.993160e+01
9.988461e+01
9.983763e+01
9.979064e+01
9.974366e+01
9.969667e+01
9.964969e+01
9.960270e+01
9.955572e+01
9.950873e+01
9.946175e+01
9.941477e+01
9.936778e+01
9.932080e+01
9.927381e+01
9.922683e+01
9.917984e+01
9.913286e+01
9.908587e+01
9.903889e+01
9.899190e+01
9.894492e+01
9.889793e+01
9.885095e+01
9.880396e+01
9.875698e+01
9.871000e+01
9.866301e+01
9.861603e+01
1.012301e+02
1.011831e+02
1.011361e+02
1.010891e+02
1.010421e+02
1.009951e+02
1.009482e+02
1.009012e+02
1.008542e+02
1.008072e+02
1.007602e+02
1.007132e+02
1.006662e+02
1.006193e+02
1.005723e+02
1.005253e+02
1.004783e+02
1.004313e+02
1.003843e+02
1.003374e+02
1.002904e+02
1.002434e+02
1.001964e+02
1.001494e+02
1.001024e+02
1.000554e+02
1.000085e+02
9.996148e+01
9.991449e+01
9.986751e+01
9.982053e+01
9.977354e+01
9.972656e+01
9.967957e+01
9.963259e+01
9.958560e+01
9.953862e+01
9.949163e+01
9.944465e+01
9.939766e+01
9.935068e+01
9.930369e+01
9.925671e+01
9.920973e+01
9.916274e+01
9.911576e+01
9.906877e+01
9.902179e+01
9.897480e+01
9.892782e+01
9.888083e+01
9.883385e+01
9.878686e+01
9.873988e+01
9.869289e+01
9.864591e+01
9.859893e+01
1.012130e+02
1.011660e+02
1.011190e+02
1.010720e+02
1.010250e+02
1.009780e+02
1.009311e+02
1.008841e+02
1.008371e+02
1.007901e+02
1.007431e+02
1.006961e+02
1.006491e+02
1.006022e+02
1.005552e+02
1.005082e+02
1.004612e+02
1.004142e+02
1.003672e+02
1.003203e+02
1.002733e+02
1.002263e+02
1.001793e+02
1.001323e+02
1.000853e+02
1.000383e+02
9.999136e+01
9.994438e+01
9.989739e+01
9.985041e+01
9.980342e+01
9.975644e+01
9.970946e+01
9.966247e+01
9.961549e+01
9.956850e+01
9.952152e+01
9.947453e+01
9.942755e+01
9.938056e+01
9.933358e+01
9.928659e+01
9.923961e+01
9.919262e+01
9.914564e+01
9.909866e+01
9.905167e+01
9.900469e+01
9.895770e+01
9.891072e+01
9.886373e+01
9.881675e+01
9.876976e+01
9.872278e+01
9.867579e+01
9.862881e+01
9.858182e+01
1.011959e+02
1.011489e+02
1.011019e+02
1.010549e+02
1.010079e+02
1.009609e+02
1.009140e+02
1.008670e+02
1.008200e+02
1.007730e+02
1.007260e+02
1.006790e+02
1.006320e+02
1.005851e+02
1.005381e+02
1.004911e+02
1.004441e+02
1.003971e+02
1.003501e+02
1.003032e+02
1.002562e+02
1.002092e+02
1.001622e+02
1.001152e+02
1.000682e+02
1.000212e+02
9.997426e+01
9.992728e+01
9.988029e+01
9.983331e+01
9.978632e+01
9.973934e+01
9.969235e+01
9.964537e+01
9.959839e+01
9.955140e+01
9.950442e+01
9.945743e+01
9.941045e+01
9.936346e+01
9.931648e+01
9.926949e+01
9.922251e+01
9.917552e+01
9.912854e+01
9.908155e+01
9.903457e+01
9.898758e+01
9.894060e+01
9.889362e+01
9.884663e+01
9.879965e+01
9.875266e+01
9.870568e+01
9.865869e+01
9.861171e+01
9.856472e+01
1.011788e+02
1.011318e+02
1.010848e+02
1.010378e+02
1.009908e+02
1.009438e+02
1.008969e+02
1.008499e+02
1.008029e+02
1.007559e+02
1.007089e+02
1.006619e+02
1.006149e+02
1.005680e+02
1.005210e+02
1.004740e+02
1.004270e+02
1.003800e+02
1.003330e+02
1.002861e+02
1.002391e+02
1.001921e+02
1.001451e+02
1.000981e+02
1.000511e+02
1.000041e+02
9.995716e+01
9.991018e+01
9.986319e+01
9.981621e+01
9.976922e+01
9.972224e+01
9.967525e+01
9.962827e+01
9.958128e+01
9.953430e+01
9.948731e+01
9.944033e+01
9.939335e+01
9.934636e+01
9.929938e+01
9.925239e+01
9.920541e+01
9.915842e+01
9.911144e+01
9.906445e+01
9.901747e+01
9.897048e+01
9.892350e+01
9.887651e+01
9.882953e+01
9.878255e+01
9.873556e+01
9.868858e+01
9.864159e+01
9.859461e+01
9.854762e+01
1.011617e+02
1.011147e+02
1.010677e+02
1.010207e+02
1.009737e+02
1.009267e+02
1.008798e+02
1.008328e+02
1.007858e+02
1.007388e+02
1.006918e+02
1.006448e+02
1.005978e+02
1.005509e+02
1.005039e+02
1.004569e+02
1.004099e+02
1.003629e+02
1.003159e+02
1.002690e+02
1.002220e+02
1.001750e+02
1.001280e+02
1.000810e+02
1.000340e+02
9.998704e+01
9.994006e+01
9.989308e+01
9.984609e+01
9.979911e+01
9.975212e+01
9.970514e+01
9.965815e+01
9.961117e+01
9.956418e+01
9.951720e+01
9.947021e+01
9.942323e+01
9.937624e+01
9.932926e+01
9.928228e+01
9.923529e+01
9.918831e+01
9.914132e+01
9.909434e+01
9.904735e+01
9.900037e+01
9.895338e+01
9.890640e+01
9.885941e+01
9.881243e+01
9.876544e+01
9.871846e+01
9.867148e+01
9.862449e+01
9.857751e+01
9.853052e+01
1.011446e+02
1.010976e+02
1.010506e+02
1.010036e+02
1.009566e+02
1.009096e+02
1.008627e+02
1.008157e+02
1.007687e+02
1.007217e+02
1.006747e+02
1.006277e+02
1.005807e+02
1.005338e+02
1.004868e+02
1.004398e+02
1.003928e+02
1.003458e+02
1.002988e+02
1.002519e+02
1.002049e+02
1.001579e+02
1.001109e+02
1.000639e+02
1.000169e+02
9.996994e+01
9.992296e+01
9.987597e+01
9.982899e+01
9.978201e+01
9.973502e+01
9.968804e+01
9.964105e+01
9.959407e+01
9.954708e+01
9.950010e+01
9.945311e+01
9.940613e+01
9.935914e+01
9.931216e+01
9.926517e+01
9.921819e+01
9.917121e+01
9.912422e+01
9.907724e+01
9.903025e+01
9.898327e+01
9.893628e+01
9.888930e+01
9.884231e+01
9.879533e+01
9.874834e+01
9.870136e+01
9.865437e+01
9.860739e+01
9.856040e+01
9.851342e+01
1.011275e+02
1.010805e+02
1.010335e+02
1.009865e+02
1.009395e+02
1.008925e+02
1.008456e+02
1.007986e+02
1.007516e+02
1.007046e+02
1.006576e+02
1.006106e+02
1.005636e+02
1.005167e+02
1.004697e+02
1.004227e+02
1.003757e+02
1.003287e+02
1.002817e+02
1.002348e+02
1.001878e+02
1.001408e+02
1.000938e+02
1.000468e+02
9.999983e+01
9.995284e+01
9.990586e+01
9.985887e+01
9.981189e+01
9.976490e+01
9.971792e+01
9.967094e+01
9.962395e+01
9.957697e+01
9.952998e+01
9.948300e+01
9.943601e+01
9.938903e+01
9.934204e+01
9.929506e+01
9.924807e+01
9.920109e+01
9.915410e+01
9.910712e+01
9.906013e+01
9.901315e+01
9.896617e+01
9.891918e+01
9.887220e+01
9.882521e+01
9.877823e+01
9.873124e+01
9.868426e+01
9.863727e+01
9.859029e+01
9.854330e+01
9.849632e+01
1.011104e+02
1.010634e+02
1.010164e+02
1.009694e+02
1.009224e+02
1.008754e+02
1.008284e+02
1.007815e+02
1.007345e+02
1.006875e+02
1.006405e+02
1.005935e+02
1.005465e+02
1.004996e+02
1.004526e+02
1.004056e+02
1.003586e+02
1.003116e+02
1.002646e+02
1.002176e+02
1.001707e+02
1.001237e+02
1.000767e+02
1.000297e+02
9.998273e+01
9.993574e+01
9.988876e+01
9.984177e+01
9.979479e+01
9.974780e+01
9.970082e+01
9.965383e+01
9.960685e+01
9.955986e+01
9.951288e+01
9.946590e+01
9.941891e+01
9.937193e+01
9.932494e+01
9.927796e+01
9.923097e+01
9.918399e+01
9.913700e+01
9.909002e+01
9.904303e+01
9.899605e+01
9.894906e+01
9.890208e+01
9.885510e+01
9.880811e+01
9.876113e+01
9.871414e+01
9.866716e+01
9.862017e+01
9.857319e+01
9.852620e+01
9.847922e+01
1.010933e+02
1.010463e+02
1.009993e+02
1.009523e+02
1.009053e+02
1.008583e+02
1.008113e+02
1.007644e+02
1.007174e+02
1.006704e+02
1.006234e+02
1.005764e+02
1.005294e+02
1.004825e+02
1.004355e+02
1.003885e+02
1.003415e+02
1.002945e+02
1.002475e+02
1.002005e+02
1.001536e+02
1.001066e+02
1.000596e+02
1.000126e+02
9.996563e+01
9.991864e+01
9.987166e+01
9.982467e+01
9.977769e+01
9.973070e+01
9.968372e+01
9.963673e+01
9.958975e+01
9.954276e+01
9.949578e+01
9.944879e+01
9.940181e+01
9.935483e+01
9.930784e+01
9.926086e+01
9.921387e+01
9.916689e+01
9.911990e+01
9.907292e+01
9.902593e+01
9.897895e+01
9.893196e+01
9.888498e+01
9.883799e+01
9.879101e+01
9.874403e+01
9.869704e+01
9.865006e+01
9.860307e+01
9.855609e+01
9.850910e+01
9.846212e+01
1.010762e+02
1.010292e+02
1.009822e+02
1.009352e+02
1.008882e+02
1.008412e+02
1.007942e+02
1.007473e+02
1.007003e+02
1.006533e+02
1.006063e+02
1.005593e+02
1.005123e+02
1.004654e+02
1.004184e+02
1.003714e+02
1.003244e+02
1.002774e+02
1.002304e+02
1.001834e+02
1.001365e+02
1.000895e+02
1.000425e+02
9.999551e+01
9.994852e+01
9.990154e+01
9.985456e+01
9.980757e+01
9.976059e+01
9.971360e+01
9.966662e+01
9.961963e+01
9.957265e+01
9.952566e+01
9.947868e+01
9.943169e+01
9.938471e+01
9.933772e+01
9.929074e+01
9.924375e+01
9.919677e+01
9.914979e+01
9.910280e+01
9.905582e+01
9.900883e+01
9.896185e+01
9.891486e+01
9.886788e+01
9.882089e+01
9.877391e+01
9.872692e+01
9.867994e+01
9.863295e+01
9.858597e+01
9.853899e+01
9.849200e+01
9.844502e+01
1.010591e+02
1.010121e+02
1.009651e+02
1.009181e+02
1.008711e+02
1.008241e+02
1.007771e+02
1.007302e+02
1.006832e+02
1.006362e+02
1.005892e+02
1.005422e+02
1.004952e+02
1.004483e+02
1.004013e+02
1.003543e+02
1.003073e+02
1.002603e+02
1.002133e+02
1.001663e+02
1.001194e+02
1.000724e+02
1.000254e+02
9.997841e+01
9.993142e+01
9.988444e+01
9.983745e+01
9.979047e+01
9.974348e+01
9.969650e+01
9.964952e+01
9.960253e+01
9.955555e+01
9.950856e+01
9.946158e+01
9.941459e+01
9.936761e+01
9.932062e+01
9.927364e+01
9.922665e+01
9.917967e+01
9.913268e+01
9.908570e+01
9.903872e+01
9.899173e+01
9.894475e+01
9.889776e+01
9.885078e+01
9.880379e+01
9.875681e+01
9.870982e+01
9.866284e+01
9.861585e+01
9.856887e+01
9.852188e+01
9.847490e+01
9.842792e+01
1.010420e+02
1.009950e+02
1.009480e+02
1.009010e+02
1.008540e+02
1.008070e+02
1.007600e+02
1.007131e+02
1.006661e+02
1.006191e+02
1.005721e+02
1.005251e+02
1.004781e+02
1.004312e+02
1.003842e+02
1.003372e+02
1.002902e+02
1.002432e+02
1.001962e+02
1.001492e+02
1.001023e+02
1.000553e+02
1.000083e+02
9.996131e+01
9.991432e+01
9.986734e+01
9.982035e+01
9.977337e+01
9.972638e+01
9.967940e+01
9.963241e+01
9.958543e+01
9.953845e+01
9.949146e+01
9.944448e+01
9.939749e+01
9.935051e+01
9.930352e+01
9.925654e+01
9.920955e+01
9.916257e+01
9.911558e+01
9.906860e+01
9.902161e+01
9.897463e+01
9.892765e+01
9.888066e+01
9.883368e+01
9.878669e+01
9.873971e+01
9.869272e+01
9.864574e+01
9.859875e+01
9.855177e+01
9.850478e+01
9.845780e+01
9.841081e+01
1.010249e+02
1.009779e+02
1.009309e+02
1.008839e+02
1.008369e+02
1.007899e+02
1.007429e+02
1.006960e+02
1.006490e+02
1.006020e+02
1.005550e+02
1.005080e+02
1.004610e+02
1.004141e+02
1.003671e+02
1.003201e+02
1.002731e+02
1.002261e+02
1.001791e+02
1.001321e+02
1.000852e+02
1.000382e+02
9.999119e+01
9.994421e+01
9.989722e+01
9.985024e+01
9.980325e+01
9.975627e+01
9.970928e+01
9.966230e+01
9.961531e+01
9.956833e+01
9.952134e+01
9.947436e+01
9.942738e+01
9.938039e+01
9.933341e+01
9.928642e+01
9.923944e+01
9.919245e+01
9.914547e+01
9.909848e+01
9.905150e+01
9.900451e+01
9.895753e+01
9.891054e+01
9.886356e+01
9.881657e+01
9.876959e+01
9.872261e+01
9.867562e+01
9.862864e+01
9.858165e+01
9.853467e+01
9.848768e+01
9.844070e+01
9.839371e+01
1.010078e+02
1.009608e+02
1.009138e+02
1.008668e+02
1.008198e+02
1.007728e+02
1.007258e+02
1.006789e+02
1.006319e+02
1.005849e+02
1.005379e+02
1.004909e+02
1.004439e+02
1.003970e+02
1.003500e+02
1.003030e+02
1.002560e+02
1.002090e+02
1.001620e+02
1.001150e+02
1.000681e+02
1.000211e+02
9.997409e+01
9.992711e+01
9.988012e+01
9.983314e+01
9.978615e+01
9.973917e+01
9.969218e+01
9.964520e+01
9.959821e+01
9.955123e+01
9.950424e+01
9.945726e+01
9.941027e+01
9.936329e+01
9.931630e+01
9.926932e+01
9.922234e+01
9.917535e+01
9.912837e+01
9.908138e+01
9.903440e+01
9.898741e+01
9.894043e+01
9.889344e+01
9.884646e+01
9.879947e+01
9.875249e+01
9.870550e+01
9.865852e+01
9.861154e+01
9.856455e+01
9.851757e+01
9.847058e+01
9.842360e+01
9.837661e+01
1.009907e+02
1.009437e+02
1.008967e+02
1.008497e+02
1.008027e+02
1.007557e+02
1.007087e+02
1.006618e+02
1.006148e+02
1.005678e+02
1.005208e+02
1.004738e+02
1.004268e+02
1.003799e+02
1.003329e+02
1.002859e+02
1.002389e+02
1.001919e+02
1.001449e+02
1.000979e+02
1.000510e+02
1.000040e+02
9.995699e+01
9.991000e+01
9.986302e+01
9.981603e+01
9.976905e+01
9.972207e+01
9.967508e+01
9.962810e+01
9.958111e+01
9.953413e+01
9.948714e+01
9.944016e+01
9.939317e+01
9.934619e+01
9.929920e+01
9.925222e+01
9.920523e+01
9.915825e+01
9.911127e+01
9.906428e+01
9.901730e+01
9.897031e+01
9.892333e+01
9.887634e+01
9.882936e+01
9.878237e+01
9.873539e+01
9.868840e+01
9.864142e+01
9.859443e+01
9.854745e+01
9.850047e+01
9.845348e+01
9.840650e+01
9.835951e+01
1.009735e+02
1.009266e+02
1.008796e+02
1.008326e+02
1.007856e+02
1.007386e+02
1.006916e+02
1.006447e+02
1.005977e+02
1.005507e+02
1.005037e+02
1.004567e+02
1.004097e+02
1.003627e+02
1.003158e+02
1.002688e+02
1.002218e+02
1.001748e+02
1.001278e+02
1.000808e+02
1.000339e+02
9.998687e+01
9.993989e+01
9.989290e+01
9.984592e+01
9.979893e+01
9.975195e+01
9.970496e+01
9.965798e+01
9.961100e+01
9.956401e+01
9.951703e+01
9.947004e+01
9.942306e+01
9.937607e+01
9.932909e+01
9.928210e+01
9.923512e+01
9.918813e+01
9.914115e+01
9.909416e+01
9.904718e+01
9.900020e+01
9.895321e+01
9.890623e+01
9.885924e+01
9.881226e+01
9.876527e+01
9.871829e+01
9.867130e+01
9.862432e+01
9.857733e+01
9.853035e+01
9.848336e+01
9.843638e+01
9.838939e+01
9.834241e+01
