# vtk DataFile Version 3.4
Image
ASCII
DATASET STRUCTURED_POINTS
DIMENSIONS 57 40 1
ORIGIN 0.000000 0.000000 0.000000
SPACING 1.000000 1.000000 1.000000
POINT_DATA 2280
SCALARS facies float 1
LOOKUP_TABLE default
1.000305e+02
1.000300e+02
1.000295e+02
1.000290e+02
1.000285e+02
1.000280e+02
1.000275e+02
1.000270e+02
1.000265e+02
1.000260e+02
1.000255e+02
1.000250e+02
1.000245e+02
1.000240e+02
1.000235e+02
1.000230e+02
1.000225e+02
1.000220e+02
1.000215e+02
1.000210e+02
1.000205e+02
1.000200e+02
1.000195e+02
1.000190e+02
1.000185e+02
1.000180e+02
1.000175e+02
1.000170e+02
1.000165e+02
1.000160e+02
1.000155e+02
1.000150e+02
1.000145e+02
1.000140e+02
1.000135e+02
1.000130e+02
1.000125e+02
1.000120e+02
1.000115e+02
1.000110e+02
1.000105e+02
1.000100e+02
1.000095e+02
1.000090e+02
1.000085e+02
1.000080e+02
1.000075e+02
1.000070e+02
1.000065e+02
1.000060e+02
1.000055e+02
1.000050e+02
1.000045e+02
1.000040e+02
1.000035e+02
1.000030e+02
1.000025e+02
1.000296e+02
1.000291e+02
1.000286e+02
1.000281e+02
1.000276e+02
1.000271e+02
1.000266e+02
1.000261e+02
1.000256e+02
1.000251e+02
1.000246e+02
1.000241e+02
1.000236e+02
1.000231e+02
1.000226e+02
1.000221e+02
1.000216e+02
1.000211e+02
1.000206e+02
1.000201e+02
1.000196e+02
1.000191e+02
1.000186e+02
1.000181e+02
1.000176e+02
1.000171e+02
1.000166e+02
1.000161e+02
1.000156e+02
1.000151e+02
1.000146e+02
1.000141e+02
1.000136e+02
1.000131e+02
1.000126e+02
1.000121e+02
1.000116e+02
1.000111e+02
1.000106e+02
1.000101e+02
1.000096e+02
1.000091e+02
1.000086e+02
1.000081e+02
1.000076e+02
1.000071e+02
1.000066e+02
1.000061e+02
1.000056e+02
1.000051e+02
1.000046e+02
1.000041e+02
1.000036e+02
1.000031e+02
1.000026e+02
1.000021e+02
1.000016e+02
1.000287e+02
1.000282e+02
1.000277e+02
1.000272e+02
1.000267e+02
1.000262e+02
1.000257e+02
1.000252e+02
1.000247e+02
1.000242e+02
1.000237e+02
1.000232e+02
1.000227e+02
1.000222e+02
1.000217e+02
1.000212e+02
1.000207e+02
1.000202e+02
1.000197e+02
1.000192e+02
1.000187e+02
1.000182e+02
1.000177e+02
1.000172e+02
1.000167e+02
1.000162e+02
1.000157e+02
1.000152e+02
1.000147e+02
1.000142e+02
1.000137e+02
1.000132e+02
1.000127e+02
1.000122e+02
1.000117e+02
1.000112e+02
1.000107e+02
1.000102e+02
1.000097e+02
1.000092e+02
1.000087e+02
1.000082e+02
1.000077e+02
1.000072e+02
1.000067e+02
1.000062e+02
1.000057e+02
1.000052e+02
1.000047e+02
1.000042e+02
1.000037e+02
1.000032e+02
1.000027e+02
1.000022e+02
1.000017e+02
1.000012e+02
1.000007e+02
1.000279e+02
1.000274e+02
1.000269e+02
1.000264e+02
1.000259e+02
1.000254e+02
1.000249e+02
1.000244e+02
1.000239e+02
1.000234e+02
1.000229e+02
1.000224e+02
1.000219e+02
1.000214e+02
1.000209e+02
1.000204e+02
1.000199e+02
1.000194e+02
1.000189e+02
1.000184e+02
1.000179e+02
1.000174e+02
1.000169e+02
1.000164e+02
1.000159e+02
1.000154e+02
1.000149e+02
1.000144e+02
1.000139e+02
1.000134e+02
1.000129e+02
1.000124e+02
1.000119e+02
1.000114e+02
1.000109e+02
1.000104e+02
1.000099e+02
1.000094e+02
1.000089e+02
1.000084e+02
1.000079e+02
1.000074e+02
1.000069e+02
1.000064e+02
1.000059e+02
1.000054e+02
1.000049e+02
1.000044e+02
1.000039e+02
1.000034e+02
1.000029e+02
1.000024e+02
1.000019e+02
1.000014e+02
1.000009e+02
1.000004e+02
9.999986e+01
1.000270e+02
1.000265e+02
1.000260e+02
1.000255e+02
1.000250e+02
1.000245e+02
1.000240e+02
1.000235e+02
1.000230e+02
1.000225e+02
1.000220e+02
1.000215e+02
1.000210e+02
1.000205e+02
1.000200e+02
1.000195e+02
1.000190e+02
1.000185e+02
1.000180e+02
1.000175e+02
1.000170e+02
1.000165e+02
1.000160e+02
1.000155e+02
1.000150e+02
1.000145e+02
1.000140e+02
1.000135e+02
1.000130e+02
1.000125e+02
1.000120e+02
1.000115e+02
1.000110e+02
1.000105e+02
1.000100e+02
1.000095e+02
1.000090e+02
1.000085e+02
1.000080e+02
1.000075e+02
1.000070e+02
1.000065e+02
1.000060e+02
1.000055e+02
1.000050e+02
1.000045e+02
1.000040e+02
1.000035e+02
1.000030e+02
1.000025e+02
1.000020e+02
1.000015e+02
1.000010e+02
1.000005e+02
9.999999e+01
9.999949e+01
9.999899e+01
1.000261e+02
1.000256e+02
1.000251e+02
1.000246e+02
1.000241e+02
1.000236e+02
1.000231e+02
1.000226e+02
1.000221e+02
1.000216e+02
1.000211e+02
1.000206e+02
1.000201e+02
1.000196e+02
1.000191e+02
1.000186e+02
1.000181e+02
1.000176e+02
1.000171e+02
1.000166e+02
1.000161e+02
1.000156e+02
1.000151e+02
1.000146e+02
1.000141e+02
1.000136e+02
1.000131e+02
1.000126e+02
1.000121e+02
1.000116e+02
1.000111e+02
1.000106e+02
1.000101e+02
1.000096e+02
1.000091e+02
1.000086e+02
1.000081e+02
1.000076e+02
1.000071e+02
1.000066e+02
1.000061e+02
1.000056e+02
1.000051e+02
1.000046e+02
1.000041e+02
1.000036e+02
1.000031e+02
1.000026e+02
1.000021e+02
1.000016e+02
1.000011e+02
1.000006e+02
1.000001e+02
9.999962e+01
9.999912e+01
9.999862e+01
9.999812e+01
1.000253e+02
1.000248e+02
1.000243e+02
1.000238e+02
1.000233e+02
1.000228e+02
1.000223e+02
1.000218e+02
1.000213e+02
1.000208e+02
1.000203e+02
1.000198e+02
1.000193e+02
1.000188e+02
1.000183e+02
1.000178e+02
1.000173e+02
1.000168e+02
1.000163e+02
1.000158e+02
1.000153e+02
1.000148e+02
1.000143e+02
1.000138e+02
1.000133e+02
1.000128e+02
1.000123e+02
1.000118e+02
1.000113e+02
1.000108e+02
1.000103e+02
1.000098e+02
1.000093e+02
1.000088e+02
1.000083e+02
1.000078e+02
1.000073e+02
1.000068e+02
1.000063e+02
1.000058e+02
1.000053e+02
1.000048e+02
1.000043e+02
1.000038e+02
1.000033e+02
1.000028e+02
1.000023e+02
1.000018e+02
1.000013e+02
1.000008e+02
1.000003e+02
9.999976e+01
9.999926e+01
9.999876e+01
9.999826e+01
9.999776e+01
9.999726e+01
1.000244e+02
1.000239e+02
1.000234e+02
1.000229e+02
1.000224e+02
1.000219e+02
1.000214e+02
1.000209e+02
1.000204e+02
1.000199e+02
1.000194e+02
1.000189e+02
1.000184e+02
1.000179e+02
1.000174e+02
1.000169e+02
1.000164e+02
1.000159e+02
1.000154e+02
1.000149e+02
1.000144e+02
1.000139e+02
1.000134e+02
1.000129e+02
1.000124e+02
1.000119e+02
1.000114e+02
1.000109e+02
1.000104e+02
1.000099e+02
1.000094e+02
1.000089e+02
1.000084e+02
1.000079e+02
1.000074e+02
1.000069e+02
1.000064e+02
1.000059e+02
1.000054e+02
1.000049e+02
1.000044e+02
1.000039e+02
1.000034e+02
1.000029e+02
1.000024e+02
1.000019e+02
1.000014e+02
1.000009e+02
1.000004e+02
9.999989e+01
9.999939e+01
9.999889e+01
9.999839e+01
9.999789e+01
9.999739e+01
9.999689e+01
9.999639e+01
1.000235e+02
1.000230e+02
1.000225e+02
1.000220e+02
1.000215e+02
1.000210e+02
1.000205e+02
1.000200e+02
1.000195e+02
1.000190e+02
1.000185e+02
1.000180e+02
1.000175e+02
1.000170e+02
1.000165e+02
1.000160e+02
1.000155e+02
1.000150e+02
1.000145e+02
1.000140e+02
1.000135e+02
1.000130e+02
1.000125e+02
1.000120e+02
1.000115e+02
1.000110e+02
1.000105e+02
1.000100e+02
1.000095e+02
1.000090e+02
1.000085e+02
1.000080e+02
1.000075e+02
1.000070e+02
1.000065e+02
1.000060e+02
1.000055e+02
1.000050e+02
1.000045e+02
1.000040e+02
1.000035e+02
1.000030e+02
1.000025e+02
1.000020e+02
1.000015e+02
1.000010e+02
1.000005e+02
1.000000e+02
9.999953e+01
9.999903e+01
9.999853e+01
9.999803e+01
9.999753e+01
9.999703e+01
9.999653e+01
9.999603e+01
9.999553e+01
1.000227e+02
1.000222e+02
1.000217e+02
1.000212e+02
1.000207e+02
1.000202e+02
1.000197e+02
1.000192e+02
1.000187e+02
1.000182e+02
1.000177e+02
1.000172e+02
1.000167e+02
1.000162e+02
1.000157e+02
1.000152e+02
1.000147e+02
1.000142e+02
1.000137e+02
1.000132e+02
1.000127e+02
1.000122e+02
1.000117e+02
1.000112e+02
1.000107e+02
1.000102e+02
1.000097e+02
1.000092e+02
1.000087e+02
1.000082e+02
1.000077e+02
1.000072e+02
1.000067e+02
1.000062e+02
1.000057e+02
1.000052e+02
1.000047e+02
1.000042e+02
1.000037e+02
1.000032e+02
1.000027e+02
1.000022e+02
1.000017e+02
1.000012e+02
1.000007e+02
1.000002e+02
9.999966e+01
9.999916e+01
9.999866e+01
9.999816e+01
9.999766e+01
9.999716e+01
9.999666e+01
9.999616e+01
9.999566e+01
9.999516e+01
9.999466e+01
1.000218e+02
1.000213e+02
1.000208e+02
1.000203e+02
1.000198e+02
1.000193e+02
1.000188e+02
1.000183e+02
1.000178e+02
1.000173e+02
1.000168e+02
1.000163e+02
1.000158e+02
1.000153e+02
1.000148e+02
1.000143e+02
1.000138e+02
1.000133e+02
1.000128e+02
1.000123e+02
1.000118e+02
1.000113e+02
1.000108e+02
1.000103e+02
1.000098e+02
1.000093e+02
1.000088e+02
1.000083e+02
1.000078e+02
1.000073e+02
1.000068e+02
1.000063e+02
1.000058e+02
1.000053e+02
1.000048e+02
1.000043e+02
1.000038e+02
1.000033e+02
1.000028e+02
1.000023e+02
1.000018e+02
1.000013e+02
1.000008e+02
1.000003e+02
9.999979e+01
9.999929e+01
9.999879e+01
9.999829e+01
9.999779e+01
9.999729e+01
9.999679e+01
9.999629e+01
9.999579e+01
9.999529e+01
9.999479e+01
9.999429e+01
9.999379e+01
1.000209e+02
1.000204e+02
1.000199e+02
1.000194e+02
1.000189e+02
1.000184e+02
1.000179e+02
1.000174e+02
1.000169e+02
1.000164e+02
1.000159e+02
1.000154e+02
1.000149e+02
1.000144e+02
1.000139e+02
1.000134e+02
1.000129e+02
1.000124e+02
1.000119e+02
1.000114e+02
1.000109e+02
1.000104e+02
1.000099e+02
1.000094e+02
1.000089e+02
1.000084e+02
1.000079e+02
1.000074e+02
1.000069e+02
1.000064e+02
1.000059e+02
1.000054e+02
1.000049e+02
1.000044e+02
1.000039e+02
1.000034e+02
1.000029e+02
1.000024e+02
1.000019e+02
1.000014e+02
1.000009e+02
1.000004e+02
9.999993e+01
9.999943e+01
9.999893e+01
9.999843e+01
9.999793e+01
9.999743e+01
9.999693e+01
9.999643e+01
9.999593e+01
9.999543e+01
9.999493e+01
9.999443e+01
9.999393e+01
9.999343e+01
9.999293e+01
1.000201e+02
1.000196e+02
1.000191e+02
1.000186e+02
1.000181e+02
1.000176e+02
1.000171e+02
1.000166e+02
1.000161e+02
1.000156e+02
1.000151e+02
1.000146e+02
1.000141e+02
1.000136e+02
1.000131e+02
1.000126e+02
1.000121e+02
1.000116e+02
1.000111e+02
1.000106e+02
1.000101e+02
1.000096e+02
1.000091e+02
1.000086e+02
1.000081e+02
1.000076e+02
1.000071e+02
1.000066e+02
1.000061e+02
1.000056e+02
1.000051e+02
1.000046e+02
1.000041e+02
1.000036e+02
1.000031e+02
1.000026e+02
1.000021e+02
1.000016e+02
1.000011e+02
1.000006e+02
1.000001e+02
9.999956e+01
9.999906e+01
9.999856e+01
9.999806e+01
9.999756e+01
9.999706e+01
9.999656e+01
9.999606e+01
9.999556e+01
9.999506e+01
9.999456e+01
9.999406e+01
9.999356e+01
9.999306e+01
9.999256e+01
9.999206e+01
1.000192e+02
1.000187e+02
1.000182e+02
1.000177e+02
1.000172e+02
1.000167e+02
1.000162e+02
1.000157e+02
1.000152e+02
1.000147e+02
1.000142e+02
1.000137e+02
1.000132e+02
1.000127e+02
1.000122e+02
1.000117e+02
1.000112e+02
1.000107e+02
1.000102e+02
1.000097e+02
1.000092e+02
1.000087e+02
1.000082e+02
1.000077e+02
1.000072e+02
1.000067e+02
1.000062e+02
1.000057e+02
1.000052e+02
1.000047e+02
1.000042e+02
1.000037e+02
1.000032e+02
1.000027e+02
1.000022e+02
1.000017e+02
1.000012e+02
1.000007e+02
1.000002e+02
9.999970e+01
9.999920e+01
9.999870e+01
9.999820e+01
9.999770e+01
9.999720e+01
9.999670e+01
9.999620e+01
9.999570e+01
9.999520e+01
9.999470e+01
9.999420e+01
9.999370e+01
9.999320e+01
9.999270e+01
9.999220e+01
9.999170e+01
9.999120e+01
1.000183e+02
1.000178e+02
1.000173e+02
1.000168e+02
1.000163e+02
1.000158e+02
1.000153e+02
1.000148e+02
1.000143e+02
1.000138e+02
1.000133e+02
1.000128e+02
1.000123e+02
1.000118e+02
1.000113e+02
1.000108e+02
1.000103e+02
1.000098e+02
1.000093e+02
1.000088e+02
1.000083e+02
1.000078e+02
1.000073e+02
1.000068e+02
1.000063e+02
1.000058e+02
1.000053e+02
1.000048e+02
1.000043e+02
1.000038e+02
1.000033e+02
1.000028e+02
1.000023e+02
1.000018e+02
1.000013e+02
1.000008e+02
1.000003e+02
9.999983e+01
9.999933e+01
9.999883e+01
9.999833e+01
9.999783e+01
9.999733e+01
9.999683e+01
9.999633e+01
9.999583e+01
9.999533e+01
9.999483e+01
9.999433e+01
9.999383e+01
9.999333e+01
9.999283e+01
9.999233e+01
9.999183e+01
9.999133e+01
9.999083e+01
9.999033e+01
1.000175e+02
1.000170e+02
1.000165e+02
1.000160e+02
1.000155e+02
1.000150e+02
1.000145e+02
1.000140e+02
1.000135e+02
1.000130e+02
1.000125e+02
1.000120e+02
1.000115e+02
1.000110e+02
1.000105e+02
1.000100e+02
1.000095e+02
1.000090e+02
1.000085e+02
1.000080e+02
1.000075e+02
1.000070e+02
1.000065e+02
1.000060e+02
1.000055e+02
1.000050e+02
1.000045e+02
1.000040e+02
1.000035e+02
1.000030e+02
1.000025e+02
1.000020e+02
1.000015e+02
1.000010e+02
1.000005e+02
9.999996e+01
9.999946e+01
9.999896e+01
9.999846e+01
9.999796e+01
9.999746e+01
9.999696e+01
9.999646e+01
9.999596e+01
9.999546e+01
9.999496e+01
9.999446e+01
9.999396e+01
9.999346e+01
9.999296e+01
9.999246e+01
9.999196e+01
9.999146e+01
9.999096e+01
9.999046e+01
9.998996e+01
9.998946e+01
1.000166e+02
1.000161e+02
1.000156e+02
1.000151e+02
1.000146e+02
1.000141e+02
1.000136e+02
1.000131e+02
1.000126e+02
1.000121e+02
1.000116e+02
1.000111e+02
1.000106e+02
1.000101e+02
1.000096e+02
1.000091e+02
1.000086e+02
1.000081e+02
1.000076e+02
1.000071e+02
1.000066e+02
1.000061e+02
1.000056e+02
1.000051e+02
1.000046e+02
1.000041e+02
1.000036e+02
1.000031e+02
1.000026e+02
1.000021e+02
1.000016e+02
1.000011e+02
1.000006e+02
1.000001e+02
9.999960e+01
9.999910e+01
9.999860e+01
9.999810e+01
9.999760e+01
9.999710e+01
9.999660e+01
9.999610e+01
9.999560e+01
9.999510e+01
9.999460e+01
9.999410e+01
9.999360e+01
9.999310e+01
9.999260e+01
9.999210e+01
9.999160e+01
9.999110e+01
9.999060e+01
9.999010e+01
9.998960e+01
9.998910e+01
9.998860e+01
1.000157e+02
1.000152e+02
1.000147e+02
1.000142e+02
1.000137e+02
1.000132e+02
1.000127e+02
1.000122e+02
1.000117e+02
1.000112e+02
1.000107e+02
1.000102e+02
1.000097e+02
1.000092e+02
1.000087e+02
1.000082e+02
1.000077e+02
1.000072e+02
1.000067e+02
1.000062e+02
1.000057e+02
1.000052e+02
1.000047e+02
1.000042e+02
1.000037e+02
1.000032e+02
1.000027e+02
1.000022e+02
1.000017e+02
1.000012e+02
1.000007e+02
1.000002e+02
9.999973e+01
9.999923e+01
9.999873e+01
9.999823e+01
9.999773e+01
9.999723e+01
9.999673e+01
9.999623e+01
9.999573e+01
9.999523e+01
9.999473e+01
9.999423e+01
9.999373e+01
9.999323e+01
9.999273e+01
9.999223e+01
9.999173e+01
9.999123e+01
9.999073e+01
9.999023e+01
9.998973e+01
9.998923e+01
9.998873e+01
9.998823e+01
9.998773e+01
1.000149e+02
1.000144e+02
1.000139e+02
1.000134e+02
1.000129e+02
1.000124e+02
1.000119e+02
1.000114e+02
1.000109e+02
1.000104e+02
1.000099e+02
1.000094e+02
1.000089e+02
1.000084e+02
1.000079e+02
1.000074e+02
1.000069e+02
1.000064e+02
1.000059e+02
1.000054e+02
1.000049e+02
1.000044e+02
1.000039e+02
1.000034e+02
1.000029e+02
1.000024e+02
1.000019e+02
1.000014e+02
1.000009e+02
1.000004e+02
9.999987e+01
9.999937e+01
9.999887e+01
9.999837e+01
9.999787e+01
9.999737e+01
9.999687e+01
9.999637e+01
9.999587e+01
9.999537e+01
9.999487e+01
9.999437e+01
9.999387e+01
9.999337e+01
9.999287e+01
9.999237e+01
9.999187e+01
9.999137e+01
9.999087e+01
9.999037e+01
9.998987e+01
9.998937e+01
9.998887e+01
9.998837e+01
9.998787e+01
9.998737e+01
9.998687e+01
1.000140e+02
1.000135e+02
1.000130e+02
1.000125e+02
1.000120e+02
1.000115e+02
1.000110e+02
1.000105e+02
1.000100e+02
1.000095e+02
1.000090e+02
1.000085e+02
1.000080e+02
1.000075e+02
1.000070e+02
1.000065e+02
1.000060e+02
1.000055e+02
1.000050e+02
1.000045e+02
1.000040e+02
1.000035e+02
1.000030e+02
1.000025e+02
1.000020e+02
1.000015e+02
1.000010e+02
1.000005e+02
1.000000e+02
9.999950e+01
9.999900e+01
9.999850e+01
9.999800e+01
9.999750e+01
9.999700e+01
9.999650e+01
9.999600e+01
9.999550e+01
9.999500e+01
9.999450e+01
9.999400e+01
9.999350e+01
9.999300e+01
9.999250e+01
9.999200e+01
9.999150e+01
9.999100e+01
9.999050e+01
9.999000e+01
9.998950e+01
9.998900e+01
9.998850e+01
9.998800e+01
9.998750e+01
9.998700e+01
9.998650e+01
9.998600e+01
1.000131e+02
1.000126e+02
1.000121e+02
1.000116e+02
1.000111e+02
1.000106e+02
1.000101e+02
1.000096e+02
1.000091e+02
1.000086e+02
1.000081e+02
1.000076e+02
1.000071e+02
1.000066e+02
1.000061e+02
1.000056e+02
1.000051e+02
1.000046e+02
1.000041e+02
1.000036e+02
1.000031e+02
1.000026e+02
1.000021e+02
1.000016e+02
1.000011e+02
1.000006e+02
1.000001e+02
9.999963e+01
9.999913e+01
9.999863e+01
9.999813e+01
9.999763e+01
9.999713e+01
9.999663e+01
9.999613e+01
9.999563e+01
9.999513e+01
9.999463e+01
9.999413e+01
9.999363e+01
9.999313e+01
9.999263e+01
9.999213e+01
9.999163e+01
9.999113e+01
9.999063e+01
9.999013e+01
9.998963e+01
9.998913e+01
9.998863e+01
9.998813e+01
9.998763e+01
9.998713e+01
9.998663e+01
9.998613e+01
9.998563e+01
9.998513e+01
1.000123e+02
1.000118e+02
1.000113e+02
1.000108e+02
1.000103e+02
1.000098e+02
1.000093e+02
1.000088e+02
1.000083e+02
1.000078e+02
1.000073e+02
1.000068e+02
1.000063e+02
1.000058e+02
1.000053e+02
1.000048e+02
1.000043e+02
1.000038e+02
1.000033e+02
1.000028e+02
1.000023e+02
1.000018e+02
1.000013e+02
1.000008e+02
1.000003e+02
9.999977e+01
9.999927e+01
9.999877e+01
9.999827e+01
9.999777e+01
9.999727e+01
9.999677e+01
9.999627e+01
9.999577e+01
9.999527e+01
9.999477e+01
9.999427e+01
9.999377e+01
9.999327e+01
9.999277e+01
9.999227e+01
9.999177e+01
9.999127e+01
9.999077e+01
9.999027e+01
9.998977e+01
9.998927e+01
9.998877e+01
9.998827e+01
9.998777e+01
9.998727e+01
9.998677e+01
9.998627e+01
9.998577e+01
9.998527e+01
9.998477e+01
9.998427e+01
1.000114e+02
1.000109e+02
1.000104e+02
1.000099e+02
1.000094e+02
1.000089e+02
1.000084e+02
1.000079e+02
1.000074e+02
1.000069e+02
1.000064e+02
1.000059e+02
1.000054e+02
1.000049e+02
1.000044e+02
1.000039e+02
1.000034e+02
1.000029e+02
1.000024e+02
1.000019e+02
1.000014e+02
1.000009e+02
1.000004e+02
9.999990e+01
9.999940e+01
9.999890e+01
9.999840e+01
9.999790e+01
9.999740e+01
9.999690e+01
9.999640e+01
9.999590e+01
9.999540e+01
9.999490e+01
9.999440e+01
9.999390e+01
9.999340e+01
9.999290e+01
9.999240e+01
9.999190e+01
9.999140e+01
9.999090e+01
9.999040e+01
9.998990e+01
9.998940e+01
9.998890e+01
9.998840e+01
9.998790e+01
9.998740e+01
9.998690e+01
9.998640e+01
9.998590e+01
9.998540e+01
9.998490e+01
9.998440e+01
9.998390e+01
9.998340e+01
1.000105e+02
1.000100e+02
1.000095e+02
1.000090e+02
1.000085e+02
1.000080e+02
1.000075e+02
1.000070e+02
1.000065e+02
1.000060e+02
1.000055e+02
1.000050e+02
1.000045e+02
1.000040e+02
1.000035e+02
1.000030e+02
1.000025e+02
1.000020e+02
1.000015e+02
1.000010e+02
1.000005e+02
1.000000e+02
9.999954e+01
9.999904e+01
9.999854e+01
9.999804e+01
9.999754e+01
9.999704e+01
9.999654e+01
9.999604e+01
9.999554e+01
9.999504e+01
9.999454e+01
9.999404e+01
9.999354e+01
9.999304e+01
9.999254e+01
9.999204e+01
9.999154e+01
9.999104e+01
9.999054e+01
9.999004e+01
9.998954e+01
9.998904e+01
9.998854e+01
9.998804e+01
9.998754e+01
9.998704e+01
9.998654e+01
9.998604e+01
9.998554e+01
9.998504e+01
9.998454e+01
9.998404e+01
9.998354e+01
9.998304e+01
9.998254e+01
1.000097e+02
1.000092e+02
1.000087e+02
1.000082e+02
1.000077e+02
1.000072e+02
1.000067e+02
1.000062e+02
1.000057e+02
1.000052e+02
1.000047e+02
1.000042e+02
1.000037e+02
1.000032e+02
1.000027e+02
1.000022e+02
1.000017e+02
1.000012e+02
1.000007e+02
1.000002e+02
9.999967e+01
9.999917e+01
9.999867e+01
9.999817e+01
9.999767e+01
9.999717e+01
9.999667e+01
9.999617e+01
9.999567e+01
9.999517e+01
9.999467e+01
9.999417e+01
9.999367e+01
9.999317e+01
9.999267e+01
9.999217e+01
9.999167e+01
9.999117e+01
9.999067e+01
9.999017e+01
9.998967e+01
9.998917e+01
9.998867e+01
9.998817e+01
9.998767e+01
9.998717e+01
9.998667e+01
9.998617e+01
9.998567e+01
9.998517e+01
9.998467e+01
9.998417e+01
9.998367e+01
9.998317e+01
9.998267e+01
9.998217e+01
9.998167e+01
1.000088e+02
1.000083e+02
1.000078e+02
1.000073e+02
1.000068e+02
1.000063e+02
1.000058e+02
1.000053e+02
1.000048e+02
1.000043e+02
1.000038e+02
1.000033e+02
1.000028e+02
1.000023e+02
1.000018e+02
1.000013e+02
1.000008e+02
1.000003e+02
9.999980e+01
9.999930e+01
9.999880e+01
9.999830e+01
9.999780e+01
9.999730e+01
9.999680e+01
9.999630e+01
9.999580e+01
9.999530e+01
9.999480e+01
9.999430e+01
9.999380e+01
9.999330e+01
9.999280e+01
9.999230e+01
9.999180e+01
9.999130e+01
9.999080e+01
9.999030e+01
9.998980e+01
9.998930e+01
9.998880e+01
9.998830e+01
9.998780e+01
9.998730e+01
9.998680e+01
9.998630e+01
9.998580e+01
9.998530e+01
9.998480e+01
9.998430e+01
9.998380e+01
9.998330e+01
9.998280e+01
9.998230e+01
9.998180e+01
9.998130e+01
9.998080e+01
1.000079e+02
1.000074e+02
1.000069e+02
1.000064e+02
1.000059e+02
1.000054e+02
1.000049e+02
1.000044e+02
1.000039e+02
1.000034e+02
1.000029e+02
1.000024e+02
1.000019e+02
1.000014e+02
1.000009e+02
1.000004e+02
9.999994e+01
9.999944e+01
9.999894e+01
9.999844e+01
9.999794e+01
9.999744e+01
9.999694e+01
9.999644e+01
9.999594e+01
9.999544e+01
9.999494e+01
9.999444e+01
9.999394e+01
9.999344e+01
9.999294e+01
9.999244e+01
9.999194e+01
9.999144e+01
9.999094e+01
9.999044e+01
9.998994e+01
9.998944e+01
9.998894e+01
9.998844e+01
9.998794e+01
9.998744e+01
9.998694e+01
9.998644e+01
9.998594e+01
9.998544e+01
9.998494e+01
9.998444e+01
9.998394e+01
9.998344e+01
9.998294e+01
9.998244e+01
9.998194e+01
9.998144e+01
9.998094e+01
9.998044e+01
9.997994e+01
1.000071e+02
1.000066e+02
1.000061e+02
1.000056e+02
1.000051e+02
1.000046e+02
1.000041e+02
1.000036e+02
1.000031e+02
1.000026e+02
1.000021e+02
1.000016e+02
1.000011e+02
1.000006e+02
1.000001e+02
9.999957e+01
9.999907e+01
9.999857e+01
9.999807e+01
9.999757e+01
9.999707e+01
9.999657e+01
9.999607e+01
9.999557e+01
9.999507e+01
9.999457e+01
9.999407e+01
9.999357e+01
9.999307e+01
9.999257e+01
9.999207e+01
9.999157e+01
9.999107e+01
9.999057e+01
9.999007e+01
9.998957e+01
9.998907e+01
9.998857e+01
9.998807e+01
9.998757e+01
9.998707e+01
9.998657e+01
9.998607e+01
9.998557e+01
9.998507e+01
9.998457e+01
9.998407e+01
9.998357e+01
9.998307e+01
9.998257e+01
9.998207e+01
9.998157e+01
9.998107e+01
9.998057e+01
9.998007e+01
9.997957e+01
9.997907e+01
1.000062e+02
1.000057e+02
1.000052e+02
1.000047e+02
1.000042e+02
1.000037e+02
1.000032e+02
1.000027e+02
1.000022e+02
1.000017e+02
1.000012e+02
1.000007e+02
1.000002e+02
9.999971e+01
9.999921e+01
9.999871e+01
9.999821e+01
9.999771e+01
9.999721e+01
9.999671e+01
9.999621e+01
9.999571e+01
9.999521e+01
9.999471e+01
9.999421e+01
9.999371e+01
9.999321e+01
9.999271e+01
9.999221e+01
9.999171e+01
9.999121e+01
9.999071e+01
9.999021e+01
9.998971e+01
9.998921e+01
9.998871e+01
9.998821e+01
9.998771e+01
9.998721e+01
9.998671e+01
9.998621e+01
9.998571e+01
9.998521e+01
9.998471e+01
9.998421e+01
9.998371e+01
9.998321e+01
9.998271e+01
9.998221e+01
9.998171e+01
9.998121e+01
9.998071e+01
9.998021e+01
9.997971e+01
9.997921e+01
9.997871e+01
9.997821e+01
1.000053e+02
1.000048e+02
1.000043e+02
1.000038e+02
1.000033e+02
1.000028e+02
1.000023e+02
1.000018e+02
1.000013e+02
1.000008e+02
1.000003e+02
9.999984e+01
9.999934e+01
9.999884e+01
9.999834e+01
9.999784e+01
9.999734e+01
9.999684e+01
9.999634e+01
9.999584e+01
9.999534e+01
9.999484e+01
9.999434e+01
9.999384e+01
9.999334e+01
9.999284e+01
9.999234e+01
9.999184e+01
9.999134e+01
9.999084e+01
9.999034e+01
9.998984e+01
9.998934e+01
9.998884e+01
9.998834e+01
9.998784e+01
9.998734e+01
9.998684e+01
9.998634e+01
9.998584e+01
9.998534e+01
9.998484e+01
9.998434e+01
9.998384e+01
9.998334e+01
9.998284e+01
9.998234e+01
9.998184e+01
9.998134e+01
9.998084e+01
9.998034e+01
9.997984e+01
9.997934e+01
9.997884e+01
9.997834e+01
9.997784e+01
9.997734e+01
1.000045e+02
1.000040e+02
1.000035e+02
1.000030e+02
1.000025e+02
1.000020e+02
1.000015e+02
1.000010e+02
1.000005e+02
9.999997e+01
9.999947e+01
9.999897e+01
9.999847e+01
9.999797e+01
9.999747e+01
9.999697e+01
9.999647e+01
9.999597e+01
9.999547e+01
9.999497e+01
9.999447e+01
9.999397e+01
9.999347e+01
9.999297e+01
9.999247e+01
9.999197e+01
9.999147e+01
9.999097e+01
9.999047e+01
9.998997e+01
9.998947e+01
9.998897e+01
9.998847e+01
9.998797e+01
9.998747e+01
9.998697e+01
9.998647e+01
9.998597e+01
9.998547e+01
9.998497e+01
9.998447e+01
9.998397e+01
9.998347e+01
9.998297e+01
9.998247e+01
9.998197e+01
9.998147e+01
9.998097e+01
9.998047e+01
9.997997e+01
9.997947e+01
9.997897e+01
9.997847e+01
9.997797e+01
9.997747e+01
9.997697e+01
9.997647e+01
1.000036e+02
1.000031e+02
1.000026e+02
1.000021e+02
1.000016e+02
1.000011e+02
1.000006e+02
1.000001e+02
9.999961e+01
9.999911e+01
9.999861e+01
9.999811e+01
9.999761e+01
9.999711e+01
9.999661e+01
9.999611e+01
9.999561e+01
9.999511e+01
9.999461e+01
9.999411e+01
9.999361e+01
9.999311e+01
9.999261e+01
9.999211e+01
9.999161e+01
9.999111e+01
9.999061e+01
9.999011e+01
9.998961e+01
9.998911e+01
9.998861e+01
9.998811e+01
9.998761e+01
9.998711e+01
9.998661e+01
9.998611e+01
9.998561e+01
9.998511e+01
9.998461e+01
9.998411e+01
9.998361e+01
9.998311e+01
9.998261e+01
9.998211e+01
9.998161e+01
9.998111e+01
9.998061e+01
9.998011e+01
9.997961e+01
9.997911e+01
9.997861e+01
9.997811e+01
9.997761e+01
9.997711e+01
9.997661e+01
9.997611e+01
9.997561e+01
1.000027e+02
1.000022e+02
1.000017e+02
1.000012e+02
1.000007e+02
1.000002e+02
9.999974e+01
9.999924e+01
9.999874e+01
9.999824e+01
9.999774e+01
9.999724e+01
9.999674e+01
9.999624e+01
9.999574e+01
9.999524e+01
9.999474e+01
9.999424e+01
9.999374e+01
9.999324e+01
9.999274e+01
9.999224e+01
9.999174e+01
9.999124e+01
9.999074e+01
9.999024e+01
9.998974e+01
9.998924e+01
9.998874e+01
9.998824e+01
9.998774e+01
9.998724e+01
9.998674e+01
9.998624e+01
9.998574e+01
9.998524e+01
9.998474e+01
9.998424e+01
9.998374e+01
9.998324e+01
9.998274e+01
9.998224e+01
9.998174e+01
9.998124e+01
9.998074e+01
9.998024e+01
9.997974e+01
9.997924e+01
9.997874e+01
9.997824e+01
9.997774e+01
9.997724e+01
9.997674e+01
9.997624e+01
9.997574e+01
9.997524e+01
9.997474e+01
1.000019e+02
1.000014e+02
1.000009e+02
1.000004e+02
9.999988e+01
9.999938e+01
9.999888e+01
9.999838e+01
9.999788e+01
9.999738e+01
9.999688e+01
9.999638e+01
9.999588e+01
9.999538e+01
9.999488e+01
9.999438e+01
9.999388e+01
9.999338e+01
9.999288e+01
9.999238e+01
9.999188e+01
9.999138e+01
9.999088e+01
9.999038e+01
9.998988e+01
9.998938e+01
9.998888e+01
9.998838e+01
9.998788e+01
9.998738e+01
9.998688e+01
9.998638e+01
9.998588e+01
9.998538e+01
9.998488e+01
9.998438e+01
9.998388e+01
9.998338e+01
9.998288e+01
9.998238e+01
9.998188e+01
9.998138e+01
9.998088e+01
9.998038e+01
9.997988e+01
9.997938e+01
9.997888e+01
9.997838e+01
9.997788e+01
9.997738e+01
9.997688e+01
9.997638e+01
9.997588e+01
9.997538e+01
9.997488e+01
9.997438e+01
9.997388e+01
1.000010e+02
1.000005e+02
1.000000e+02
9.999951e+01
9.999901e+01
9.999851e+01
9.999801e+01
9.999751e+01
9.999701e+01
9.999651e+01
9.999601e+01
9.999551e+01
9.999501e+01
9.999451e+01
9.999401e+01
9.999351e+01
9.999301e+01
9.999251e+01
9.999201e+01
9.999151e+01
9.999101e+01
9.999051e+01
9.999001e+01
9.998951e+01
9.998901e+01
9.998851e+01
9.998801e+01
9.998751e+01
9.998701e+01
9.998651e+01
9.998601e+01
9.998551e+01
9.998501e+01
9.998451e+01
9.998401e+01
9.998351e+01
9.998301e+01
9.998251e+01
9.998201e+01
9.998151e+01
9.998101e+01
9.998051e+01
9.998001e+01
9.997951e+01
9.997901e+01
9.997851e+01
9.997801e+01
9.997751e+01
9.997701e+01
9.997651e+01
9.997601e+01
9.997551e+01
9.997501e+01
9.997451e+01
9.997401e+01
9.997351e+01
9.997301e+01
1.000001e+02
9.999964e+01
9.999914e+01
9.999864e+01
9.999814e+01
9.999764e+01
9.999714e+01
9.999664e+01
9.999614e+01
9.999564e+01
9.999514e+01
9.999464e+01
9.999414e+01
9.999364e+01
9.999314e+01
9.999264e+01
9.999214e+01
9.999164e+01
9.999114e+01
9.999064e+01
9.999014e+01
9.998964e+01
9.998914e+01
9.998864e+01
9.998814e+01
9.998764e+01
9.998714e+01
9.998664e+01
9.998614e+01
9.998564e+01
9.998514e+01
9.998464e+01
9.998414e+01
9.998364e+01
9.998314e+01
9.998264e+01
9.998214e+01
9.998164e+01
9.998114e+01
9.998064e+01
9.998014e+01
9.997964e+01
9.997914e+01
9.997864e+01
9.997814e+01
9.997764e+01
9.997714e+01
9.997664e+01
9.997614e+01
9.997564e+01
9.997514e+01
9.997464e+01
9.997414e+01
9.997364e+01
9.997314e+01
9.997264e+01
9.997214e+01
9.999928e+01
9.999878e+01
9.999828e+01
9.999778e+01
9.999728e+01
9.999678e+01
9.999628e+01
9.999578e+01
9.999528e+01
9.999478e+01
9.999428e+01
9.999378e+01
9.999328e+01
9.999278e+01
9.999228e+01
9.999178e+01
9.999128e+01
9.999078e+01
9.999028e+01
9.998978e+01
9.998928e+01
9.998878e+01
9.998828e+01
9.998778e+01
9.998728e+01
9.998678e+01
9.998628e+01
9.998578e+01
9.998528e+01
9.998478e+01
9.998428e+01
9.998378e+01
9.998328e+01
9.998278e+01
9.998228e+01
9.998178e+01
9.998128e+01
9.998078e+01
9.998028e+01
9.997978e+01
9.997928e+01
9.997878e+01
9.997828e+01
9.997778e+01
9.997728e+01
9.997678e+01
9.997628e+01
9.997578e+01
9.997528e+01
9.997478e+01
9.997428e+01
9.997378e+01
9.997328e+01
9.997278e+01
9.997228e+01
9.997178e+01
9.997128e+01
9.999841e+01
9.999791e+01
9.999741e+01
9.999691e+01
9.999641e+01
9.999591e+01
9.999541e+01
9.999491e+01
9.999441e+01
9.999391e+01
9.999341e+01
9.999291e+01
9.999241e+01
9.999191e+01
9.999141e+01
9.999091e+01
9.999041e+01
9.998991e+01
9.998941e+01
9.998891e+01
9.998841e+01
9.998791e+01
9.998741e+01
9.998691e+01
9.998641e+01
9.998591e+01
9.998541e+01
9.998491e+01
9.998441e+01
9.998391e+01
9.998341e+01
9.998291e+01
9.998241e+01
9.998191e+01
9.998141e+01
9.998091e+01
9.998041e+01
9.997991e+01
9.997941e+01
9.997891e+01
9.997841e+01
9.997791e+01
9.997741e+01
9.997691e+01
9.997641e+01
9.997591e+01
9.997541e+01
9.997491e+01
9.997441e+01
9.997391e+01
9.997341e+01
9.997291e+01
9.997241e+01
9.997191e+01
9.997141e+01
9.997091e+01
9.997041e+01
9.999755e+01
9.999705e+01
9.999655e+01
9.999605e+01
9.999555e+01
9.999505e+01
9.999455e+01
9.999405e+01
9.999355e+01
9.999305e+01
9.999255e+01
9.999205e+01
9.999155e+01
9.999105e+01
9.999055e+01
9.999005e+01
9.998955e+01
9.998905e+01
9.998855e+01
9.998805e+01
9.998755e+01
9.998705e+01
9.998655e+01
9.998605e+01
9.998555e+01
9.998505e+01
9.998455e+01
9.998405e+01
9.998355e+01
9.998305e+01
9.998255e+01
9.998205e+01
9.998155e+01
9.998105e+01
9.998055e+01
9.998005e+01
9.997955e+01
9.997905e+01
9.997855e+01
9.997805e+01
9.997755e+01
9.997705e+01
9.997655e+01
9.997605e+01
9.997555e+01
9.997505e+01
9.997455e+01
9.997405e+01
9.997355e+01
9.997305e+01
9.997255e+01
9.997205e+01
9.997155e+01
9.997105e+01
9.997055e+01
9.997005e+01
9.996955e+01
9.999668e+01
9.999618e+01
9.999568e+01
9.999518e+01
9.999468e+01
9.999418e+01
9.999368e+01
9.999318e+01
9.999268e+01
9.999218e+01
9.999168e+01
9.999118e+01
9.999068e+01
9.999018e+01
9.998968e+01
9.998918e+01
9.998868e+01
9.998818e+01
9.998768e+01
9.998718e+01
9.998668e+01
9.998618e+01
9.998568e+01
9.998518e+01
9.998468e+01
9.998418e+01
9.998368e+01
9.998318e+01
9.998268e+01
9.998218e+01
9.998168e+01
9.998118e+01
9.998068e+01
9.998018e+01
9.997968e+01
9.997918e+01
9.997868e+01
9.997818e+01
9.997768e+01
9.997718e+01
9.997668e+01
9.997618e+01
9.997568e+01
9.997518e+01
9.997468e+01
9.997418e+01
9.997368e+01
9.997318e+01
9.997268e+01
9.997218e+01
9.997168e+01
9.997118e+01
9.997068e+01
9.997018e+01
9.996968e+01
9.996918e+01
9.996868e+01
