# vtk DataFile Version 3.4
Image
ASCII
DATASET STRUCTURED_POINTS
DIMENSIONS 57 40 1
ORIGIN 0.000000 0.000000 0.000000
SPACING 1.000000 1.000000 1.000000
POINT_DATA 2280
SCALARS facies float 1
LOOKUP_TABLE default
1.000457e+02
1.000449e+02
1.000442e+02
1.000434e+02
1.000427e+02
1.000419e+02
1.000412e+02
1.000404e+02
1.000397e+02
1.000389e+02
1.000382e+02
1.000374e+02
1.000367e+02
1.000359e+02
1.000352e+02
1.000344e+02
1.000337e+02
1.000329e+02
1.000322e+02
1.000314e+02
1.000307e+02
1.000299e+02
1.000292e+02
1.000284e+02
1.000277e+02
1.000269e+02
1.000262e+02
1.000254e+02
1.000247e+02
1.000239e+02
1.000232e+02
1.000224e+02
1.000217e+02
1.000209e+02
1.000202e+02
1.000194e+02
1.000187e+02
1.000179e+02
1.000172e+02
1.000164e+02
1.000157e+02
1.000149e+02
1.000142e+02
1.000134e+02
1.000127e+02
1.000119e+02
1.000112e+02
1.000104e+02
1.000097e+02
1.000089e+02
1.000082e+02
1.000074e+02
1.000067e+02
1.000059e+02
1.000052e+02
1.000044e+02
1.000037e+02
1.000444e+02
1.000436e+02
1.000429e+02
1.000421e+02
1.000414e+02
1.000406e+02
1.000399e+02
1.000391e+02
1.000384e+02
1.000376e+02
1.000369e+02
1.000361e+02
1.000354e+02
1.000346e+02
1.000339e+02
1.000331e+02
1.000324e+02
1.000316e+02
1.000309e+02
1.000301e+02
1.000294e+02
1.000286e+02
1.000279e+02
1.000271e+02
1.000264e+02
1.000256e+02
1.000249e+02
1.000241e+02
1.000234e+02
1.000226e+02
1.000219e+02
1.000211e+02
1.000204e+02
1.000196e+02
1.000189e+02
1.000181e+02
1.000174e+02
1.000166e+02
1.000159e+02
1.000151e+02
1.000144e+02
1.000136e+02
1.000129e+02
1.000121e+02
1.000114e+02
1.000106e+02
1.000099e+02
1.000091e+02
1.000084e+02
1.000076e+02
1.000069e+02
1.000061e+02
1.000054e+02
1.000046e+02
1.000039e+02
1.000031e+02
1.000024e+02
1.000431e+02
1.000423e+02
1.000416e+02
1.000408e+02
1.000401e+02
1.000393e+02
1.000386e+02
1.000378e+02
1.000371e+02
1.000363e+02
1.000356e+02
1.000348e+02
1.000341e+02
1.000333e+02
1.000326e+02
1.000318e+02
1.000311e+02
1.000303e+02
1.000296e+02
1.000288e+02
1.000281e+02
1.000273e+02
1.000266e+02
1.000258e+02
1.000251e+02
1.000243e+02
1.000236e+02
1.000228e+02
1.000221e+02
1.000213e+02
1.000206e+02
1.000198e+02
1.000191e+02
1.000183e+02
1.000176e+02
1.000168e+02
1.000161e+02
1.000153e+02
1.000146e+02
1.000138e+02
1.000131e+02
1.000123e+02
1.000116e+02
1.000108e+02
1.000101e+02
1.000093e+02
1.000086e+02
1.000078e+02
1.000071e+02
1.000063e+02
1.000056e+02
1.000048e+02
1.000041e+02
1.000033e+02
1.000026e+02
1.000018e+02
1.000011e+02
1.000418e+02
1.000410e+02
1.000403e+02
1.000395e+02
1.000388e+02
1.000380e+02
1.000373e+02
1.000365e+02
1.000358e+02
1.000350e+02
1.000343e+02
1.000335e+02
1.000328e+02
1.000320e+02
1.000313e+02
1.000305e+02
1.000298e+02
1.000290e+02
1.000283e+02
1.000275e+02
1.000268e+02
1.000260e+02
1.000253e+02
1.000245e+02
1.000238e+02
1.000230e+02
1.000223e+02
1.000215e+02
1.000208e+02
1.000200e+02
1.000193e+02
1.000185e+02
1.000178e+02
1.000170e+02
1.000163e+02
1.000155e+02
1.000148e+02
1.000140e+02
1.000133e+02
1.000125e+02
1.000118e+02
1.000110e+02
1.000103e+02
1.000095e+02
1.000088e+02
1.000080e+02
1.000073e+02
1.000065e+02
1.000058e+02
1.000050e+02
1.000043e+02
1.000035e+02
1.000028e+02
1.000020e+02
1.000013e+02
1.000005e+02
9.999978e+01
1.000405e+02
1.000397e+02
1.000390e+02
1.000382e+02
1.000375e+02
1.000367e+02
1.000360e+02
1.000352e+02
1.000345e+02
1.000337e+02
1.000330e+02
1.000322e+02
1.000315e+02
1.000307e+02
1.000300e+02
1.000292e+02
1.000285e+02
1.000277e+02
1.000270e+02
1.000262e+02
1.000255e+02
1.000247e+02
1.000240e+02
1.000232e+02
1.000225e+02
1.000217e+02
1.000210e+02
1.000202e+02
1.000195e+02
1.000187e+02
1.000180e+02
1.000172e+02
1.000165e+02
1.000157e+02
1.000150e+02
1.000142e+02
1.000135e+02
1.000127e+02
1.000120e+02
1.000112e+02
1.000105e+02
1.000097e+02
1.000090e+02
1.000082e+02
1.000075e+02
1.000067e+02
1.000060e+02
1.000052e+02
1.000045e+02
1.000037e+02
1.000030e+02
1.000022e+02
1.000015e+02
1.000007e+02
9.999999e+01
9.999924e+01
9.999849e+01
1.000392e+02
1.000384e+02
1.000377e+02
1.000369e+02
1.000362e+02
1.000354e+02
1.000347e+02
1.000339e+02
1.000332e+02
1.000324e+02
1.000317e+02
1.000309e+02
1.000302e+02
1.000294e+02
1.000287e+02
1.000279e+02
1.000272e+02
1.000264e+02
1.000257e+02
1.000249e+02
1.000242e+02
1.000234e+02
1.000227e+02
1.000219e+02
1.000212e+02
1.000204e+02
1.000197e+02
1.000189e+02
1.000182e+02
1.000174e+02
1.000167e+02
1.000159e+02
1.000152e+02
1.000144e+02
1.000137e+02
1.000129e+02
1.000122e+02
1.000114e+02
1.000107e+02
1.000099e+02
1.000092e+02
1.000084e+02
1.000077e+02
1.000069e+02
1.000062e+02
1.000054e+02
1.000047e+02
1.000039e+02
1.000032e+02
1.000024e+02
1.000017e+02
1.000009e+02
1.000002e+02
9.999944e+01
9.999869e+01
9.999794e+01
9.999719e+01
1.000379e+02
1.000371e+02
1.000364e+02
1.000356e+02
1.000349e+02
1.000341e+02
1.000334e+02
1.000326e+02
1.000319e+02
1.000311e+02
1.000304e+02
1.000296e+02
1.000289e+02
1.000281e+02
1.000274e+02
1.000266e+02
1.000259e+02
1.000251e+02
1.000244e+02
1.000236e+02
1.000229e+02
1.000221e+02
1.000214e+02
1.000206e+02
1.000199e+02
1.000191e+02
1.000184e+02
1.000176e+02
1.000169e+02
1.000161e+02
1.000154e+02
1.000146e+02
1.000139e+02
1.000131e+02
1.000124e+02
1.000116e+02
1.000109e+02
1.000101e+02
1.000094e+02
1.000086e+02
1.000079e+02
1.000071e+02
1.000064e+02
1.000056e+02
1.000049e+02
1.000041e+02
1.000034e+02
1.000026e+02
1.000019e+02
1.000011e+02
1.000004e+02
9.999964e+01
9.999889e+01
9.999814e+01
9.999739e+01
9.999664e+01
9.999589e+01
1.000366e+02
1.000358e+02
1.000351e+02
1.000343e+02
1.000336e+02
1.000328e+02
1.000321e+02
1.000313e+02
1.000306e+02
1.000298e+02
1.000291e+02
1.000283e+02
1.000276e+02
1.000268e+02
1.000261e+02
1.000253e+02
1.000246e+02
1.000238e+02
1.000231e+02
1.000223e+02
1.000216e+02
1.000208e+02
1.000201e+02
1.000193e+02
1.000186e+02
1.000178e+02
1.000171e+02
1.000163e+02
1.000156e+02
1.000148e+02
1.000141e+02
1.000133e+02
1.000126e+02
1.000118e+02
1.000111e+02
1.000103e+02
1.000096e+02
1.000088e+02
1.000081e+02
1.000073e+02
1.000066e+02
1.000058e+02
1.000051e+02
1.000043e+02
1.000036e+02
1.000028e+02
1.000021e+02
1.000013e+02
1.000006e+02
9.999984e+01
9.999909e+01
9.999834e+01
9.999759e+01
9.999684e+01
9.999609e+01
9.999534e+01
9.999459e+01
1.000353e+02
1.000345e+02
1.000338e+02
1.000330e+02
1.000323e+02
1.000315e+02
1.000308e+02
1.000300e+02
1.000293e+02
1.000285e+02
1.000278e+02
1.000270e+02
1.000263e+02
1.000255e+02
1.000248e+02
1.000240e+02
1.000233e+02
1.000225e+02
1.000218e+02
1.000210e+02
1.000203e+02
1.000195e+02
1.000188e+02
1.000180e+02
1.000173e+02
1.000165e+02
1.000158e+02
1.000150e+02
1.000143e+02
1.000135e+02
1.000128e+02
1.000120e+02
1.000113e+02
1.000105e+02
1.000098e+02
1.000090e+02
1.000083e+02
1.000075e+02
1.000068e+02
1.000060e+02
1.000053e+02
1.000045e+02
1.000038e+02
1.000030e+02
1.000023e+02
1.000015e+02
1.000008e+02
1.000000e+02
9.999929e+01
9.999854e+01
9.999779e+01
9.999704e+01
9.999629e+01
9.999554e+01
9.999479e+01
9.999404e+01
9.999329e+01
1.000340e+02
1.000332e+02
1.000325e+02
1.000317e+02
1.000310e+02
1.000302e+02
1.000295e+02
1.000287e+02
1.000280e+02
1.000272e+02
1.000265e+02
1.000257e+02
1.000250e+02
1.000242e+02
1.000235e+02
1.000227e+02
1.000220e+02
1.000212e+02
1.000205e+02
1.000197e+02
1.000190e+02
1.000182e+02
1.000175e+02
1.000167e+02
1.000160e+02
1.000152e+02
1.000145e+02
1.000137e+02
1.000130e+02
1.000122e+02
1.000115e+02
1.000107e+02
1.000100e+02
1.000092e+02
1.000085e+02
1.000077e+02
1.000070e+02
1.000062e+02
1.000055e+02
1.000047e+02
1.000040e+02
1.000032e+02
1.000025e+02
1.000017e+02
1.000010e+02
1.000002e+02
9.999949e+01
9.999874e+01
9.999799e+01
9.999724e+01
9.999649e+01
9.999574e+01
9.999499e+01
9.999424e+01
9.999349e+01
9.999274e+01
9.999199e+01
1.000327e+02
1.000319e+02
1.000312e+02
1.000304e+02
1.000297e+02
1.000289e+02
1.000282e+02
1.000274e+02
1.000267e+02
1.000259e+02
1.000252e+02
1.000244e+02
1.000237e+02
1.000229e+02
1.000222e+02
1.000214e+02
1.000207e+02
1.000199e+02
1.000192e+02
1.000184e+02
1.000177e+02
1.000169e+02
1.000162e+02
1.000154e+02
1.000147e+02
1.000139e+02
1.000132e+02
1.000124e+02
1.000117e+02
1.000109e+02
1.000102e+02
1.000094e+02
1.000087e+02
1.000079e+02
1.000072e+02
1.000064e+02
1.000057e+02
1.000049e+02
1.000042e+02
1.000034e+02
1.000027e+02
1.000019e+02
1.000012e+02
1.000004e+02
9.999969e+01
9.999894e+01
9.999819e+01
9.999744e+01
9.999669e+01
9.999594e+01
9.999519e+01
9.999444e+01
9.999369e+01
9.999294e+01
9.999219e+01
9.999144e+01
9.999069e+01
1.000314e+02
1.000306e+02
1.000299e+02
1.000291e+02
1.000284e+02
1.000276e+02
1.000269e+02
1.000261e+02
1.000254e+02
1.000246e+02
1.000239e+02
1.000231e+02
1.000224e+02
1.000216e+02
1.000209e+02
1.000201e+02
1.000194e+02
1.000186e+02
1.000179e+02
1.000171e+02
1.000164e+02
1.000156e+02
1.000149e+02
1.000141e+02
1.000134e+02
1.000126e+02
1.000119e+02
1.000111e+02
1.000104e+02
1.000096e+02
1.000089e+02
1.000081e+02
1.000074e+02
1.000066e+02
1.000059e+02
1.000051e+02
1.000044e+02
1.000036e+02
1.000029e+02
1.000021e+02
1.000014e+02
1.000006e+02
9.999989e+01
9.999914e+01
9.999839e+01
9.999764e+01
9.999689e+01
9.999614e+01
9.999539e+01
9.999464e+01
9.999389e+01
9.999314e+01
9.999239e+01
9.999164e+01
9.999089e+01
9.999014e+01
9.998939e+01
1.000301e+02
1.000293e+02
1.000286e+02
1.000278e+02
1.000271e+02
1.000263e+02
1.000256e+02
1.000248e+02
1.000241e+02
1.000233e+02
1.000226e+02
1.000218e+02
1.000211e+02
1.000203e+02
1.000196e+02
1.000188e+02
1.000181e+02
1.000173e+02
1.000166e+02
1.000158e+02
1.000151e+02
1.000143e+02
1.000136e+02
1.000128e+02
1.000121e+02
1.000113e+02
1.000106e+02
1.000098e+02
1.000091e+02
1.000083e+02
1.000076e+02
1.000068e+02
1.000061e+02
1.000053e+02
1.000046e+02
1.000038e+02
1.000031e+02
1.000023e+02
1.000016e+02
1.000008e+02
1.000001e+02
9.999934e+01
9.999859e+01
9.999784e+01
9.999709e+01
9.999634e+01
9.999559e+01
9.999484e+01
9.999409e+01
9.999334e+01
9.999259e+01
9.999184e+01
9.999109e+01
9.999034e+01
9.998959e+01
9.998884e+01
9.998809e+01
1.000288e+02
1.000280e+02
1.000273e+02
1.000265e+02
1.000258e+02
1.000250e+02
1.000243e+02
1.000235e+02
1.000228e+02
1.000220e+02
1.000213e+02
1.000205e+02
1.000198e+02
1.000190e+02
1.000183e+02
1.000175e+02
1.000168e+02
1.000160e+02
1.000153e+02
1.000145e+02
1.000138e+02
1.000130e+02
1.000123e+02
1.000115e+02
1.000108e+02
1.000100e+02
1.000093e+02
1.000085e+02
1.000078e+02
1.000070e+02
1.000063e+02
1.000055e+02
1.000048e+02
1.000040e+02
1.000033e+02
1.000025e+02
1.000018e+02
1.000010e+02
1.000003e+02
9.999954e+01
9.999879e+01
9.999804e+01
9.999729e+01
9.999654e+01
9.999579e+01
9.999504e+01
9.999429e+01
9.999354e+01
9.999279e+01
9.999204e+01
9.999129e+01
9.999054e+01
9.998979e+01
9.998904e+01
9.998829e+01
9.998754e+01
9.998679e+01
1.000275e+02
1.000267e+02
1.000260e+02
1.000252e+02
1.000245e+02
1.000237e+02
1.000230e+02
1.000222e+02
1.000215e+02
1.000207e+02
1.000200e+02
1.000192e+02
1.000185e+02
1.000177e+02
1.000170e+02
1.000162e+02
1.000155e+02
1.000147e+02
1.000140e+02
1.000132e+02
1.000125e+02
1.000117e+02
1.000110e+02
1.000102e+02
1.000095e+02
1.000087e+02
1.000080e+02
1.000072e+02
1.000065e+02
1.000057e+02
1.000050e+02
1.000042e+02
1.000035e+02
1.000027e+02
1.000020e+02
1.000012e+02
1.000005e+02
9.999975e+01
9.999900e+01
9.999825e+01
9.999750e+01
9.999675e+01
9.999600e+01
9.999525e+01
9.999450e+01
9.999375e+01
9.999300e+01
9.999225e+01
9.999150e+01
9.999075e+01
9.999000e+01
9.998925e+01
9.998850e+01
9.998775e+01
9.998700e+01
9.998625e+01
9.998550e+01
1.000262e+02
1.000254e+02
1.000247e+02
1.000239e+02
1.000232e+02
1.000224e+02
1.000217e+02
1.000209e+02
1.000202e+02
1.000194e+02
1.000187e+02
1.000179e+02
1.000172e+02
1.000164e+02
1.000157e+02
1.000149e+02
1.000142e+02
1.000134e+02
1.000127e+02
1.000119e+02
1.000112e+02
1.000104e+02
1.000097e+02
1.000089e+02
1.000082e+02
1.000074e+02
1.000067e+02
1.000059e+02
1.000052e+02
1.000044e+02
1.000037e+02
1.000029e+02
1.000022e+02
1.000014e+02
1.000007e+02
9.999995e+01
9.999920e+01
9.999845e+01
9.999770e+01
9.999695e+01
9.999620e+01
9.999545e+01
9.999470e+01
9.999395e+01
9.999320e+01
9.999245e+01
9.999170e+01
9.999095e+01
9.999020e+01
9.998945e+01
9.998870e+01
9.998795e+01
9.998720e+01
9.998645e+01
9.998570e+01
9.998495e+01
9.998420e+01
1.000249e+02
1.000241e+02
1.000234e+02
1.000226e+02
1.000219e+02
1.000211e+02
1.000204e+02
1.000196e+02
1.000189e+02
1.000181e+02
1.000174e+02
1.000166e+02
1.000159e+02
1.000151e+02
1.000144e+02
1.000136e+02
1.000129e+02
1.000121e+02
1.000114e+02
1.000106e+02
1.000099e+02
1.000091e+02
1.000084e+02
1.000076e+02
1.000069e+02
1.000061e+02
1.000054e+02
1.000046e+02
1.000039e+02
1.000031e+02
1.000024e+02
1.000016e+02
1.000009e+02
1.000001e+02
9.999940e+01
9.999865e+01
9.999790e+01
9.999715e+01
9.999640e+01
9.999565e+01
9.999490e+01
9.999415e+01
9.999340e+01
9.999265e+01
9.999190e+01
9.999115e+01
9.999040e+01
9.998965e+01
9.998890e+01
9.998815e+01
9.998740e+01
9.998665e+01
9.998590e+01
9.998515e+01
9.998440e+01
9.998365e+01
9.998290e+01
1.000236e+02
1.000228e+02
1.000221e+02
1.000213e+02
1.000206e+02
1.000198e+02
1.000191e+02
1.000183e+02
1.000176e+02
1.000168e+02
1.000161e+02
1.000153e+02
1.000146e+02
1.000138e+02
1.000131e+02
1.000123e+02
1.000116e+02
1.000108e+02
1.000101e+02
1.000093e+02
1.000086e+02
1.000078e+02
1.000071e+02
1.000063e+02
1.000056e+02
1.000048e+02
1.000041e+02
1.000033e+02
1.000026e+02
1.000018e+02
1.000011e+02
1.000003e+02
9.999960e+01
9.999885e+01
9.999810e+01
9.999735e+01
9.999660e+01
9.999585e+01
9.999510e+01
9.999435e+01
9.999360e+01
9.999285e+01
9.999210e+01
9.999135e+01
9.999060e+01
9.998985e+01
9.998910e+01
9.998835e+01
9.998760e+01
9.998685e+01
9.998610e+01
9.998535e+01
9.998460e+01
9.998385e+01
9.998310e+01
9.998235e+01
9.998160e+01
1.000223e+02
1.000215e+02
1.000208e+02
1.000200e+02
1.000193e+02
1.000185e+02
1.000178e+02
1.000170e+02
1.000163e+02
1.000155e+02
1.000148e+02
1.000140e+02
1.000133e+02
1.000125e+02
1.000118e+02
1.000110e+02
1.000103e+02
1.000095e+02
1.000088e+02
1.000080e+02
1.000073e+02
1.000065e+02
1.000058e+02
1.000050e+02
1.000043e+02
1.000035e+02
1.000028e+02
1.000020e+02
1.000013e+02
1.000005e+02
9.999980e+01
9.999905e+01
9.999830e+01
9.999755e+01
9.999680e+01
9.999605e+01
9.999530e+01
9.999455e+01
9.999380e+01
9.999305e+01
9.999230e+01
9.999155e+01
9.999080e+01
9.999005e+01
9.998930e+01
9.998855e+01
9.998780e+01
9.998705e+01
9.998630e+01
9.998555e+01
9.998480e+01
9.998405e+01
9.998330e+01
9.998255e+01
9.998180e+01
9.998105e+01
9.998030e+01
1.000210e+02
1.000203e+02
1.000195e+02
1.000187e+02
1.000180e+02
1.000173e+02
1.000165e+02
1.000157e+02
1.000150e+02
1.000143e+02
1.000135e+02
1.000127e+02
1.000120e+02
1.000113e+02
1.000105e+02
1.000097e+02
1.000090e+02
1.000083e+02
1.000075e+02
1.000067e+02
1.000060e+02
1.000053e+02
1.000045e+02
1.000037e+02
1.000030e+02
1.000023e+02
1.000015e+02
1.000007e+02
1.000000e+02
9.999925e+01
9.999850e+01
9.999775e+01
9.999700e+01
9.999625e+01
9.999550e+01
9.999475e+01
9.999400e+01
9.999325e+01
9.999250e+01
9.999175e+01
9.999100e+01
9.999025e+01
9.998950e+01
9.998875e+01
9.998800e+01
9.998725e+01
9.998650e+01
9.998575e+01
9.998500e+01
9.998425e+01
9.998350e+01
9.998275e+01
9.998200e+01
9.998125e+01
9.998050e+01
9.997975e+01
9.997900e+01
1.000197e+02
1.000190e+02
1.000182e+02
1.000175e+02
1.000167e+02
1.000160e+02
1.000152e+02
1.000145e+02
1.000137e+02
1.000130e+02
1.000122e+02
1.000115e+02
1.000107e+02
1.000100e+02
1.000092e+02
1.000085e+02
1.000077e+02
1.000070e+02
1.000062e+02
1.000055e+02
1.000047e+02
1.000040e+02
1.000032e+02
1.000025e+02
1.000017e+02
1.000010e+02
1.000002e+02
9.999945e+01
9.999870e+01
9.999795e+01
9.999720e+01
9.999645e+01
9.999570e+01
9.999495e+01
9.999420e+01
9.999345e+01
9.999270e+01
9.999195e+01
9.999120e+01
9.999045e+01
9.998970e+01
9.998895e+01
9.998820e+01
9.998745e+01
9.998670e+01
9.998595e+01
9.998520e+01
9.998445e+01
9.998370e+01
9.998295e+01
9.998220e+01
9.998145e+01
9.998070e+01
9.997995e+01
9.997920e+01
9.997845e+01
9.997770e+01
1.000184e+02
1.000177e+02
1.000169e+02
1.000162e+02
1.000154e+02
1.000147e+02
1.000139e+02
1.000132e+02
1.000124e+02
1.000117e+02
1.000109e+02
1.000102e+02
1.000094e+02
1.000087e+02
1.000079e+02
1.000072e+02
1.000064e+02
1.000057e+02
1.000049e+02
1.000042e+02
1.000034e+02
1.000027e+02
1.000019e+02
1.000012e+02
1.000004e+02
9.999965e+01
9.999890e+01
9.999815e+01
9.999740e+01
9.999665e+01
9.999590e+01
9.999515e+01
9.999440e+01
9.999365e+01
9.999290e+01
9.999215e+01
9.999140e+01
9.999065e+01
9.998990e+01
9.998915e+01
9.998840e+01
9.998765e+01
9.998690e+01
9.998615e+01
9.998540e+01
9.998465e+01
9.998390e+01
9.998315e+01
9.998240e+01
9.998165e+01
9.998090e+01
9.998015e+01
9.997940e+01
9.997865e+01
9.997790e+01
9.997715e+01
9.997640e+01
1.000171e+02
1.000164e+02
1.000156e+02
1.000149e+02
1.000141e+02
1.000134e+02
1.000126e+02
1.000119e+02
1.000111e+02
1.000104e+02
1.000096e+02
1.000089e+02
1.000081e+02
1.000074e+02
1.000066e+02
1.000059e+02
1.000051e+02
1.000044e+02
1.000036e+02
1.000029e+02
1.000021e+02
1.000014e+02
1.000006e+02
9.999985e+01
9.999910e+01
9.999835e+01
9.999760e+01
9.999685e+01
9.999610e+01
9.999535e+01
9.999460e+01
9.999385e+01
9.999310e+01
9.999235e+01
9.999160e+01
9.999085e+01
9.999010e+01
9.998935e+01
9.998860e+01
9.998785e+01
9.998710e+01
9.998635e+01
9.998560e+01
9.998485e+01
9.998410e+01
9.998335e+01
9.998260e+01
9.998185e+01
9.998110e+01
9.998035e+01
9.997960e+01
9.997885e+01
9.997810e+01
9.997735e+01
9.997660e+01
9.997585e+01
9.997510e+01
1.000158e+02
1.000151e+02
1.000143e+02
1.000136e+02
1.000128e+02
1.000121e+02
1.000113e+02
1.000106e+02
1.000098e+02
1.000091e+02
1.000083e+02
1.000076e+02
1.000068e+02
1.000061e+02
1.000053e+02
1.000046e+02
1.000038e+02
1.000031e+02
1.000023e+02
1.000016e+02
1.000008e+02
1.000001e+02
9.999930e+01
9.999855e+01
9.999780e+01
9.999705e+01
9.999630e+01
9.999555e+01
9.999480e+01
9.999405e+01
9.999330e+01
9.999255e+01
9.999180e+01
9.999105e+01
9.999030e+01
9.998955e+01
9.998880e+01
9.998805e+01
9.998730e+01
9.998655e+01
9.998580e+01
9.998505e+01
9.998430e+01
9.998355e+01
9.998280e+01
9.998205e+01
9.998130e+01
9.998055e+01
9.997980e+01
9.997905e+01
9.997830e+01
9.997755e+01
9.997680e+01
9.997605e+01
9.997530e+01
9.997455e+01
9.997380e+01
1.000145e+02
1.000138e+02
1.000130e+02
1.000123e+02
1.000115e+02
1.000108e+02
1.000100e+02
1.000093e+02
1.000085e+02
1.000078e+02
1.000070e+02
1.000063e+02
1.000055e+02
1.000048e+02
1.000040e+02
1.000033e+02
1.000025e+02
1.000018e+02
1.000010e+02
1.000003e+02
9.999950e+01
9.999875e+01
9.999800e+01
9.999725e+01
9.999650e+01
9.999575e+01
9.999500e+01
9.999425e+01
9.999350e+01
9.999275e+01
9.999200e+01
9.999125e+01
9.999050e+01
9.998975e+01
9.998900e+01
9.998825e+01
9.998750e+01
9.998675e+01
9.998600e+01
9.998525e+01
9.998450e+01
9.998375e+01
9.998300e+01
9.998225e+01
9.998150e+01
9.998075e+01
9.998000e+01
9.997925e+01
9.997850e+01
9.997775e+01
9.997700e+01
9.997625e+01
9.997550e+01
9.997475e+01
9.997400e+01
9.997325e+01
9.997250e+01
1.000132e+02
1.000125e+02
1.000117e+02
1.000110e+02
1.000102e+02
1.000095e+02
1.000087e+02
1.000080e+02
1.000072e+02
1.000065e+02
1.000057e+02
1.000050e+02
1.000042e+02
1.000035e+02
1.000027e+02
1.000020e+02
1.000012e+02
1.000005e+02
9.999971e+01
9.999896e+01
9.999821e+01
9.999746e+01
9.999671e+01
9.999596e+01
9.999521e+01
9.999446e+01
9.999371e+01
9.999296e+01
9.999221e+01
9.999146e+01
9.999071e+01
9.998996e+01
9.998921e+01
9.998846e+01
9.998771e+01
9.998696e+01
9.998621e+01
9.998546e+01
9.998471e+01
9.998396e+01
9.998321e+01
9.998246e+01
9.998171e+01
9.998096e+01
9.998021e+01
9.997946e+01
9.997871e+01
9.997796e+01
9.997721e+01
9.997646e+01
9.997571e+01
9.997496e+01
9.997421e+01
9.997346e+01
9.997271e+01
9.997196e+01
9.997121e+01
1.000119e+02
1.000112e+02
1.000104e+02
1.000097e+02
1.000089e+02
1.000082e+02
1.000074e+02
1.000067e+02
1.000059e+02
1.000052e+02
1.000044e+02
1.000037e+02
1.000029e+02
1.000022e+02
1.000014e+02
1.000007e+02
9.999991e+01
9.999916e+01
9.999841e+01
9.999766e+01
9.999691e+01
9.999616e+01
9.999541e+01
9.999466e+01
9.999391e+01
9.999316e+01
9.999241e+01
9.999166e+01
9.999091e+01
9.999016e+01
9.998941e+01
9.998866e+01
9.998791e+01
9.998716e+01
9.998641e+01
9.998566e+01
9.998491e+01
9.998416e+01
9.998341e+01
9.998266e+01
9.998191e+01
9.998116e+01
9.998041e+01
9.997966e+01
9.997891e+01
9.997816e+01
9.997741e+01
9.997666e+01
9.997591e+01
9.997516e+01
9.997441e+01
9.997366e+01
9.997291e+01
9.997216e+01
9.997141e+01
9.997066e+01
9.996991e+01
1.000106e+02
1.000099e+02
1.000091e+02
1.000084e+02
1.000076e+02
1.000069e+02
1.000061e+02
1.000054e+02
1.000046e+02
1.000039e+02
1.000031e+02
1.000024e+02
1.000016e+02
1.000009e+02
1.000001e+02
9.999936e+01
9.999861e+01
9.999786e+01
9.999711e+01
9.999636e+01
9.999561e+01
9.999486e+01
9.999411e+01
9.999336e+01
9.999261e+01
9.999186e+01
9.999111e+01
9.999036e+01
9.998961e+01
9.998886e+01
9.998811e+01
9.998736e+01
9.998661e+01
9.998586e+01
9.998511e+01
9.998436e+01
9.998361e+01
9.998286e+01
9.998211e+01
9.998136e+01
9.998061e+01
9.997986e+01
9.997911e+01
9.997836e+01
9.997761e+01
9.997686e+01
9.997611e+01
9.997536e+01
9.997461e+01
9.997386e+01
9.997311e+01
9.997236e+01
9.997161e+01
9.997086e+01
9.997011e+01
9.996936e+01
9.996861e+01
1.000093e+02
1.000086e+02
1.000078e+02
1.000071e+02
1.000063e+02
1.000056e+02
1.000048e+02
1.000041e+02
1.000033e+02
1.000026e+02
1.000018e+02
1.000011e+02
1.000003e+02
9.999956e+01
9.999881e+01
9.999806e+01
9.999731e+01
9.999656e+01
9.999581e+01
9.999506e+01
9.999431e+01
9.999356e+01
9.999281e+01
9.999206e+01
9.999131e+01
9.999056e+01
9.998981e+01
9.998906e+01
9.998831e+01
9.998756e+01
9.998681e+01
9.998606e+01
9.998531e+01
9.998456e+01
9.998381e+01
9.998306e+01
9.998231e+01
9.998156e+01
9.998081e+01
9.998006e+01
9.997931e+01
9.997856e+01
9.997781e+01
9.997706e+01
9.997631e+01
9.997556e+01
9.997481e+01
9.997406e+01
9.997331e+01
9.997256e+01
9.997181e+01
9.997106e+01
9.997031e+01
9.996956e+01
9.996881e+01
9.996806e+01
9.996731e+01
1.000080e+02
1.000073e+02
1.000065e+02
1.000058e+02
1.000050e+02
1.000043e+02
1.000035e+02
1.000028e+02
1.000020e+02
1.000013e+02
1.000005e+02
9.999976e+01
9.999901e+01
9.999826e+01
9.999751e+01
9.999676e+01
9.999601e+01
9.999526e+01
9.999451e+01
9.999376e+01
9.999301e+01
9.999226e+01
9.999151e+01
9.999076e+01
9.999001e+01
9.998926e+01
9.998851e+01
9.998776e+01
9.998701e+01
9.998626e+01
9.998551e+01
9.998476e+01
9.998401e+01
9.998326e+01
9.998251e+01
9.998176e+01
9.998101e+01
9.998026e+01
9.997951e+01
9.997876e+01
9.997801e+01
9.997726e+01
9.997651e+01
9.997576e+01
9.997501e+01
9.997426e+01
9.997351e+01
9.997276e+01
9.997201e+01
9.997126e+01
9.997051e+01
9.996976e+01
9.996901e+01
9.996826e+01
9.996751e+01
9.996676e+01
9.996601e+01
1.000067e+02
1.000060e+02
1.000052e+02
1.000045e+02
1.000037e+02
1.000030e+02
1.000022e+02
1.000015e+02
1.000007e+02
9.999996e+01
9.999921e+01
9.999846e+01
9.999771e+01
9.999696e+01
9.999621e+01
9.999546e+01
9.999471e+01
9.999396e+01
9.999321e+01
9.999246e+01
9.999171e+01
9.999096e+01
9.999021e+01
9.998946e+01
9.998871e+01
9.998796e+01
9.998721e+01
9.998646e+01
9.998571e+01
9.998496e+01
9.998421e+01
9.998346e+01
9.998271e+01
9.998196e+01
9.998121e+01
9.998046e+01
9.997971e+01
9.997896e+01
9.997821e+01
9.997746e+01
9.997671e+01
9.997596e+01
9.997521e+01
9.997446e+01
9.997371e+01
9.997296e+01
9.997221e+01
9.997146e+01
9.997071e+01
9.996996e+01
9.996921e+01
9.996846e+01
9.996771e+01
9.996696e+01
9.996621e+01
9.996546e+01
9.996471e+01
1.000054e+02
1.000047e+02
1.000039e+02
1.000032e+02
1.000024e+02
1.000017e+02
1.000009e+02
1.000002e+02
9.999941e+01
9.999866e+01
9.999791e+01
9.999716e+01
9.999641e+01
9.999566e+01
9.999491e+01
9.999416e+01
9.999341e+01
9.999266e+01
9.999191e+01
9.999116e+01
9.999041e+01
9.998966e+01
9.998891e+01
9.998816e+01
9.998741e+01
9.998666e+01
9.998591e+01
9.998516e+01
9.998441e+01
9.998366e+01
9.998291e+01
9.998216e+01
9.998141e+01
9.998066e+01
9.997991e+01
9.997916e+01
9.997841e+01
9.997766e+01
9.997691e+01
9.997616e+01
9.997541e+01
9.997466e+01
9.997391e+01
9.997316e+01
9.997241e+01
9.997166e+01
9.997091e+01
9.997016e+01
9.996941e+01
9.996866e+01
9.996791e+01
9.996716e+01
9.996641e+01
9.996566e+01
9.996491e+01
9.996416e+01
9.996341e+01
1.000041e+02
1.000034e+02
1.000026e+02
1.000019e+02
1.000011e+02
1.000004e+02
9.999961e+01
9.999886e+01
9.999811e+01
9.999736e+01
9.999661e+01
9.999586e+01
9.999511e+01
9.999436e+01
9.999361e+01
9.999286e+01
9.999211e+01
9.999136e+01
9.999061e+01
9.998986e+01
9.998911e+01
9.998836e+01
9.998761e+01
9.998686e+01
9.998611e+01
9.998536e+01
9.998461e+01
9.998386e+01
9.998311e+01
9.998236e+01
9.998161e+01
9.998086e+01
9.998011e+01
9.997936e+01
9.997861e+01
9.997786e+01
9.997711e+01
9.997636e+01
9.997561e+01
9.997486e+01
9.997411e+01
9.997336e+01
9.997261e+01
9.997186e+01
9.997111e+01
9.997036e+01
9.996961e+01
9.996886e+01
9.996811e+01
9.996736e+01
9.996661e+01
9.996586e+01
9.996511e+01
9.996436e+01
9.996361e+01
9.996286e+01
9.996211e+01
1.000028e+02
1.000021e+02
1.000013e+02
1.000006e+02
9.999981e+01
9.999906e+01
9.999831e+01
9.999756e+01
9.999681e+01
9.999606e+01
9.999531e+01
9.999456e+01
9.999381e+01
9.999306e+01
9.999231e+01
9.999156e+01
9.999081e+01
9.999006e+01
9.998931e+01
9.998856e+01
9.998781e+01
9.998706e+01
9.998631e+01
9.998556e+01
9.998481e+01
9.998406e+01
9.998331e+01
9.998256e+01
9.998181e+01
9.998106e+01
9.998031e+01
9.997956e+01
9.997881e+01
9.997806e+01
9.997731e+01
9.997656e+01
9.997581e+01
9.997506e+01
9.997431e+01
9.997356e+01
9.997281e+01
9.997206e+01
9.997131e+01
9.997056e+01
9.996981e+01
9.996906e+01
9.996831e+01
9.996756e+01
9.996681e+01
9.996606e+01
9.996531e+01
9.996456e+01
9.996381e+01
9.996306e+01
9.996231e+01
9.996156e+01
9.996081e+01
1.000015e+02
1.000008e+02
1.000000e+02
9.999926e+01
9.999851e+01
9.999776e+01
9.999701e+01
9.999626e+01
9.999551e+01
9.999476e+01
9.999401e+01
9.999326e+01
9.999251e+01
9.999176e+01
9.999101e+01
9.999026e+01
9.998951e+01
9.998876e+01
9.998801e+01
9.998726e+01
9.998651e+01
9.998576e+01
9.998501e+01
9.998426e+01
9.998351e+01
9.998276e+01
9.998201e+01
9.998126e+01
9.998051e+01
9.997976e+01
9.997901e+01
9.997826e+01
9.997751e+01
9.997676e+01
9.997601e+01
9.997526e+01
9.997451e+01
9.997376e+01
9.997301e+01
9.997226e+01
9.997151e+01
9.997076e+01
9.997001e+01
9.996926e+01
9.996851e+01
9.996776e+01
9.996701e+01
9.996626e+01
9.996551e+01
9.996476e+01
9.996401e+01
9.996326e+01
9.996251e+01
9.996176e+01
9.996101e+01
9.996026e+01
9.995951e+01
1.000002e+02
9.999947e+01
9.999872e+01
9.999797e+01
9.999722e+01
9.999647e+01
9.999572e+01
9.999497e+01
9.999422e+01
9.999347e+01
9.999272e+01
9.999197e+01
9.999122e+01
9.999047e+01
9.998972e+01
9.998897e+01
9.998822e+01
9.998747e+01
9.998672e+01
9.998597e+01
9.998522e+01
9.998447e+01
9.998372e+01
9.998297e+01
9.998222e+01
9.998147e+01
9.998072e+01
9.997997e+01
9.997922e+01
9.997847e+01
9.997772e+01
9.997697e+01
9.997622e+01
9.997547e+01
9.997472e+01
9.997397e+01
9.997322e+01
9.997247e+01
9.997172e+01
9.997097e+01
9.997022e+01
9.996947e+01
9.996872e+01
9.996797e+01
9.996722e+01
9.996647e+01
9.996572e+01
9.996497e+01
9.996422e+01
9.996347e+01
9.996272e+01
9.996197e+01
9.996122e+01
9.996047e+01
9.995972e+01
9.995897e+01
9.995822e+01
9.999892e+01
9.999817e+01
9.999742e+01
9.999667e+01
9.999592e+01
9.999517e+01
9.999442e+01
9.999367e+01
9.999292e+01
9.999217e+01
9.999142e+01
9.999067e+01
9.998992e+01
9.998917e+01
9.998842e+01
9.998767e+01
9.998692e+01
9.998617e+01
9.998542e+01
9.998467e+01
9.998392e+01
9.998317e+01
9.998242e+01
9.998167e+01
9.998092e+01
9.998017e+01
9.997942e+01
9.997867e+01
9.997792e+01
9.997717e+01
9.997642e+01
9.997567e+01
9.997492e+01
9.997417e+01
9.997342e+01
9.997267e+01
9.997192e+01
9.997117e+01
9.997042e+01
9.996967e+01
9.996892e+01
9.996817e+01
9.996742e+01
9.996667e+01
9.996592e+01
9.996517e+01
9.996442e+01
9.996367e+01
9.996292e+01
9.996217e+01
9.996142e+01
9.996067e+01
9.995992e+01
9.995917e+01
9.995842e+01
9.995767e+01
9.995692e+01
9.999762e+01
9.999687e+01
9.999612e+01
9.999537e+01
9.999462e+01
9.999387e+01
9.999312e+01
9.999237e+01
9.999162e+01
9.999087e+01
9.999012e+01
9.998937e+01
9.998862e+01
9.998787e+01
9.998712e+01
9.998637e+01
9.998562e+01
9.998487e+01
9.998412e+01
9.998337e+01
9.998262e+01
9.998187e+01
9.998112e+01
9.998037e+01
9.997962e+01
9.997887e+01
9.997812e+01
9.997737e+01
9.997662e+01
9.997587e+01
9.997512e+01
9.997437e+01
9.997362e+01
9.997287e+01
9.997212e+01
9.997137e+01
9.997062e+01
9.996987e+01
9.996912e+01
9.996837e+01
9.996762e+01
9.996687e+01
9.996612e+01
9.996537e+01
9.996462e+01
9.996387e+01
9.996312e+01
9.996237e+01
9.996162e+01
9.996087e+01
9.996012e+01
9.995937e+01
9.995862e+01
9.995787e+01
9.995712e+01
9.995637e+01
9.995562e+01
9.999632e+01
9.999557e+01
9.999482e+01
9.999407e+01
9.999332e+01
9.999257e+01
9.999182e+01
9.999107e+01
9.999032e+01
9.998957e+01
9.998882e+01
9.998807e+01
9.998732e+01
9.998657e+01
9.998582e+01
9.998507e+01
9.998432e+01
9.998357e+01
9.998282e+01
9.998207e+01
9.998132e+01
9.998057e+01
9.997982e+01
9.997907e+01
9.997832e+01
9.997757e+01
9.997682e+01
9.997607e+01
9.997532e+01
9.997457e+01
9.997382e+01
9.997307e+01
9.997232e+01
9.997157e+01
9.997082e+01
9.997007e+01
9.996932e+01
9.996857e+01
9.996782e+01
9.996707e+01
9.996632e+01
9.996557e+01
9.996482e+01
9.996407e+01
9.996332e+01
9.996257e+01
9.996182e+01
9.996107e+01
9.996032e+01
9.995957e+01
9.995882e+01
9.995807e+01
9.995732e+01
9.995657e+01
9.995582e+01
9.995507e+01
9.995432e+01
9.999502e+01
9.999427e+01
9.999352e+01
9.999277e+01
9.999202e+01
9.999127e+01
9.999052e+01
9.998977e+01
9.998902e+01
9.998827e+01
9.998752e+01
9.998677e+01
9.998602e+01
9.998527e+01
9.998452e+01
9.998377e+01
9.998302e+01
9.998227e+01
9.998152e+01
9.998077e+01
9.998002e+01
9.997927e+01
9.997852e+01
9.997777e+01
9.997702e+01
9.997627e+01
9.997552e+01
9.997477e+01
9.997402e+01
9.997327e+01
9.997252e+01
9.997177e+01
9.997102e+01
9.997027e+01
9.996952e+01
9.996877e+01
9.996802e+01
9.996727e+01
9.996652e+01
9.996577e+01
9.996502e+01
9.996427e+01
9.996352e+01
9.996277e+01
9.996202e+01
9.996127e+01
9.996052e+01
9.995977e+01
9.995902e+01
9.995827e+01
9.995752e+01
9.995677e+01
9.995602e+01
9.995527e+01
9.995452e+01
9.995377e+01
9.995302e+01
