# vtk DataFile Version 3.4
Image
ASCII
DATASET STRUCTURED_POINTS
DIMENSIONS 57 40 1
ORIGIN 0.000000 0.000000 0.000000
SPACING 1.000000 1.000000 1.000000
POINT_DATA 2280
SCALARS facies float 1
LOOKUP_TABLE default
1.013715e+02
1.013544e+02
1.013373e+02
1.013202e+02
1.013031e+02
1.012860e+02
1.012689e+02
1.012518e+02
1.012347e+02
1.012176e+02
1.012005e+02
1.011834e+02
1.011663e+02
1.011492e+02
1.011321e+02
1.011150e+02
1.010979e+02
1.010808e+02
1.010637e+02
1.010466e+02
1.010295e+02
1.010124e+02
1.009953e+02
1.009782e+02
1.009611e+02
1.009440e+02
1.009269e+02
1.009098e+02
1.008927e+02
1.008756e+02
1.008585e+02
1.008414e+02
1.008243e+02
1.008072e+02
1.007901e+02
1.007730e+02
1.007559e+02
1.007388e+02
1.007217e+02
1.007046e+02
1.006875e+02
1.006704e+02
1.006533e+02
1.006362e+02
1.006191e+02
1.006020e+02
1.005849e+02
1.005678e+02
1.005507e+02
1.005336e+02
1.005165e+02
1.004994e+02
1.004823e+02
1.004652e+02
1.004481e+02
1.004310e+02
1.004139e+02
1.013246e+02
1.013075e+02
1.012903e+02
1.012732e+02
1.012561e+02
1.012390e+02
1.012219e+02
1.012048e+02
1.011877e+02
1.011706e+02
1.011535e+02
1.011364e+02
1.011193e+02
1.011022e+02
1.010851e+02
1.010680e+02
1.010509e+02
1.010338e+02
1.010167e+02
1.009996e+02
1.009825e+02
1.009654e+02
1.009483e+02
1.009312e+02
1.009141e+02
1.008970e+02
1.008799e+02
1.008628e+02
1.008457e+02
1.008286e+02
1.008115e+02
1.007944e+02
1.007773e+02
1.007602e+02
1.007431e+02
1.007260e+02
1.007089e+02
1.006918e+02
1.006747e+02
1.006576e+02
1.006405e+02
1.006234e+02
1.006063e+02
1.005892e+02
1.005721e+02
1.005550e+02
1.005379e+02
1.005208e+02
1.005037e+02
1.004866e+02
1.004695e+02
1.004524e+02
1.004353e+02
1.004182e+02
1.004011e+02
1.003840e+02
1.003669e+02
1.012776e+02
1.012605e+02
1.012434e+02
1.012263e+02
1.012092e+02
1.011921e+02
1.011750e+02
1.011579e+02
1.011408e+02
1.011237e+02
1.011066e+02
1.010895e+02
1.010724e+02
1.010553e+02
1.010382e+02
1.010211e+02
1.010040e+02
1.009868e+02
1.009697e+02
1.009526e+02
1.009355e+02
1.009184e+02
1.009013e+02
1.008842e+02
1.008671e+02
1.008500e+02
1.008329e+02
1.008158e+02
1.007987e+02
1.007816e+02
1.007645e+02
1.007474e+02
1.007303e+02
1.007132e+02
1.006961e+02
1.006790e+02
1.006619e+02
1.006448e+02
1.006277e+02
1.006106e+02
1.005935e+02
1.005764e+02
1.005593e+02
1.005422e+02
1.005251e+02
1.005080e+02
1.004909e+02
1.004738e+02
1.004567e+02
1.004396e+02
1.004225e+02
1.004054e+02
1.003883e+02
1.003712e+02
1.003541e+02
1.003370e+02
1.003199e+02
1.012306e+02
1.012135e+02
1.011964e+02
1.011793e+02
1.011622e+02
1.011451e+02
1.011280e+02
1.011109e+02
1.010938e+02
1.010767e+02
1.010596e+02
1.010425e+02
1.010254e+02
1.010083e+02
1.009912e+02
1.009741e+02
1.009570e+02
1.009399e+02
1.009228e+02
1.009057e+02
1.008886e+02
1.008715e+02
1.008544e+02
1.008373e+02
1.008202e+02
1.008031e+02
1.007860e+02
1.007689e+02
1.007518e+02
1.007347e+02
1.007176e+02
1.007005e+02
1.006834e+02
1.006662e+02
1.006491e+02
1.006320e+02
1.006149e+02
1.005978e+02
1.005807e+02
1.005636e+02
1.005465e+02
1.005294e+02
1.005123e+02
1.004952e+02
1.004781e+02
1.004610e+02
1.004439e+02
1.004268e+02
1.004097e+02
1.003926e+02
1.003755e+02
1.003584e+02
1.003413e+02
1.003242e+02
1.003071e+02
1.002900e+02
1.002729e+02
1.011836e+02
1.011665e+02
1.011494e+02
1.011323e+02
1.011152e+02
1.010981e+02
1.010810e+02
1.010639e+02
1.010468e+02
1.010297e+02
1.010126e+02
1.009955e+02
1.009784e+02
1.009613e+02
1.009442e+02
1.009271e+02
1.009100e+02
1.008929e+02
1.008758e+02
1.008587e+02
1.008416e+02
1.008245e+02
1.008074e+02
1.007903e+02
1.007732e+02
1.007561e+02
1.007390e+02
1.007219e+02
1.007048e+02
1.006877e+02
1.006706e+02
1.006535e+02
1.006364e+02
1.006193e+02
1.006022e+02
1.005851e+02
1.005680e+02
1.005509e+02
1.005338e+02
1.005167e+02
1.004996e+02
1.004825e+02
1.004654e+02
1.004483e+02
1.004312e+02
1.004141e+02
1.003970e+02
1.003799e+02
1.003627e+02
1.003456e+02
1.003285e+02
1.003114e+02
1.002943e+02
1.002772e+02
1.002601e+02
1.002430e+02
1.002259e+02
1.011366e+02
1.011195e+02
1.011024e+02
1.010853e+02
1.010682e+02
1.010511e+02
1.010340e+02
1.010169e+02
1.009998e+02
1.009827e+02
1.009656e+02
1.009485e+02
1.009314e+02
1.009143e+02
1.008972e+02
1.008801e+02
1.008630e+02
1.008459e+02
1.008288e+02
1.008117e+02
1.007946e+02
1.007775e+02
1.007604e+02
1.007433e+02
1.007262e+02
1.007091e+02
1.006920e+02
1.006749e+02
1.006578e+02
1.006407e+02
1.006236e+02
1.006065e+02
1.005894e+02
1.005723e+02
1.005552e+02
1.005381e+02
1.005210e+02
1.005039e+02
1.004868e+02
1.004697e+02
1.004526e+02
1.004355e+02
1.004184e+02
1.004013e+02
1.003842e+02
1.003671e+02
1.003500e+02
1.003329e+02
1.003158e+02
1.002987e+02
1.002816e+02
1.002645e+02
1.002474e+02
1.002303e+02
1.002132e+02
1.001961e+02
1.001790e+02
1.010896e+02
1.010725e+02
1.010554e+02
1.010383e+02
1.010212e+02
1.010041e+02
1.009870e+02
1.009699e+02
1.009528e+02
1.009357e+02
1.009186e+02
1.009015e+02
1.008844e+02
1.008673e+02
1.008502e+02
1.008331e+02
1.008160e+02
1.007989e+02
1.007818e+02
1.007647e+02
1.007476e+02
1.007305e+02
1.007134e+02
1.006963e+02
1.006792e+02
1.006621e+02
1.006450e+02
1.006279e+02
1.006108e+02
1.005937e+02
1.005766e+02
1.005595e+02
1.005424e+02
1.005253e+02
1.005082e+02
1.004911e+02
1.004740e+02
1.004569e+02
1.004398e+02
1.004227e+02
1.004056e+02
1.003885e+02
1.003714e+02
1.003543e+02
1.003372e+02
1.003201e+02
1.003030e+02
1.002859e+02
1.002688e+02
1.002517e+02
1.002346e+02
1.002175e+02
1.002004e+02
1.001833e+02
1.001662e+02
1.001491e+02
1.001320e+02
1.010426e+02
1.010255e+02
1.010084e+02
1.009913e+02
1.009742e+02
1.009571e+02
1.009400e+02
1.009229e+02
1.009058e+02
1.008887e+02
1.008716e+02
1.008545e+02
1.008374e+02
1.008203e+02
1.008032e+02
1.007861e+02
1.007690e+02
1.007519e+02
1.007348e+02
1.007177e+02
1.007006e+02
1.006835e+02
1.006664e+02
1.006493e+02
1.006322e+02
1.006151e+02
1.005980e+02
1.005809e+02
1.005638e+02
1.005467e+02
1.005296e+02
1.005125e+02
1.004954e+02
1.004783e+02
1.004612e+02
1.004441e+02
1.004270e+02
1.004099e+02
1.003928e+02
1.003757e+02
1.003586e+02
1.003415e+02
1.003244e+02
1.003073e+02
1.002902e+02
1.002731e+02
1.002560e+02
1.002389e+02
1.002218e+02
1.002047e+02
1.001876e+02
1.001705e+02
1.001534e+02
1.001363e+02
1.001192e+02
1.001021e+02
1.000850e+02
1.009957e+02
1.009786e+02
1.009615e+02
1.009444e+02
1.009273e+02
1.009102e+02
1.008931e+02
1.008760e+02
1.008589e+02
1.008418e+02
1.008246e+02
1.008075e+02
1.007904e+02
1.007733e+02
1.007562e+02
1.007391e+02
1.007220e+02
1.007049e+02
1.006878e+02
1.006707e+02
1.006536e+02
1.006365e+02
1.006194e+02
1.006023e+02
1.005852e+02
1.005681e+02
1.005510e+02
1.005339e+02
1.005168e+02
1.004997e+02
1.004826e+02
1.004655e+02
1.004484e+02
1.004313e+02
1.004142e+02
1.003971e+02
1.003800e+02
1.003629e+02
1.003458e+02
1.003287e+02
1.003116e+02
1.002945e+02
1.002774e+02
1.002603e+02
1.002432e+02
1.002261e+02
1.002090e+02
1.001919e+02
1.001748e+02
1.001577e+02
1.001406e+02
1.001235e+02
1.001064e+02
1.000893e+02
1.000722e+02
1.000551e+02
1.000380e+02
1.009487e+02
1.009316e+02
1.009145e+02
1.008974e+02
1.008803e+02
1.008632e+02
1.008461e+02
1.008290e+02
1.008119e+02
1.007948e+02
1.007777e+02
1.007606e+02
1.007435e+02
1.007264e+02
1.007093e+02
1.006922e+02
1.006751e+02
1.006580e+02
1.006409e+02
1.006238e+02
1.006067e+02
1.005896e+02
1.005725e+02
1.005554e+02
1.005383e+02
1.005211e+02
1.005040e+02
1.004869e+02
1.004698e+02
1.004527e+02
1.004356e+02
1.004185e+02
1.004014e+02
1.003843e+02
1.003672e+02
1.003501e+02
1.003330e+02
1.003159e+02
1.002988e+02
1.002817e+02
1.002646e+02
1.002475e+02
1.002304e+02
1.002133e+02
1.001962e+02
1.001791e+02
1.001620e+02
1.001449e+02
1.001278e+02
1.001107e+02
1.000936e+02
1.000765e+02
1.000594e+02
1.000423e+02
1.000252e+02
1.000081e+02
9.999102e+01
1.009017e+02
1.008846e+02
1.008675e+02
1.008504e+02
1.008333e+02
1.008162e+02
1.007991e+02
1.007820e+02
1.007649e+02
1.007478e+02
1.007307e+02
1.007136e+02
1.006965e+02
1.006794e+02
1.006623e+02
1.006452e+02
1.006281e+02
1.006110e+02
1.005939e+02
1.005768e+02
1.005597e+02
1.005426e+02
1.005255e+02
1.005084e+02
1.004913e+02
1.004742e+02
1.004571e+02
1.004400e+02
1.004229e+02
1.004058e+02
1.003887e+02
1.003716e+02
1.003545e+02
1.003374e+02
1.003203e+02
1.003032e+02
1.002861e+02
1.002690e+02
1.002519e+02
1.002348e+02
1.002176e+02
1.002005e+02
1.001834e+02
1.001663e+02
1.001492e+02
1.001321e+02
1.001150e+02
1.000979e+02
1.000808e+02
1.000637e+02
1.000466e+02
1.000295e+02
1.000124e+02
9.999534e+01
9.997824e+01
9.996113e+01
9.994403e+01
1.008547e+02
1.008376e+02
1.008205e+02
1.008034e+02
1.007863e+02
1.007692e+02
1.007521e+02
1.007350e+02
1.007179e+02
1.007008e+02
1.006837e+02
1.006666e+02
1.006495e+02
1.006324e+02
1.006153e+02
1.005982e+02
1.005811e+02
1.005640e+02
1.005469e+02
1.005298e+02
1.005127e+02
1.004956e+02
1.004785e+02
1.004614e+02
1.004443e+02
1.004272e+02
1.004101e+02
1.003930e+02
1.003759e+02
1.003588e+02
1.003417e+02
1.003246e+02
1.003075e+02
1.002904e+02
1.002733e+02
1.002562e+02
1.002391e+02
1.002220e+02
1.002049e+02
1.001878e+02
1.001707e+02
1.001536e+02
1.001365e+02
1.001194e+02
1.001023e+02
1.000852e+02
1.000681e+02
1.000510e+02
1.000339e+02
1.000168e+02
9.999965e+01
9.998255e+01
9.996545e+01
9.994835e+01
9.993125e+01
9.991415e+01
9.989705e+01
1.008077e+02
1.007906e+02
1.007735e+02
1.007564e+02
1.007393e+02
1.007222e+02
1.007051e+02
1.006880e+02
1.006709e+02
1.006538e+02
1.006367e+02
1.006196e+02
1.006025e+02
1.005854e+02
1.005683e+02
1.005512e+02
1.005341e+02
1.005170e+02
1.004999e+02
1.004828e+02
1.004657e+02
1.004486e+02
1.004315e+02
1.004144e+02
1.003973e+02
1.003802e+02
1.003631e+02
1.003460e+02
1.003289e+02
1.003118e+02
1.002947e+02
1.002776e+02
1.002605e+02
1.002434e+02
1.002263e+02
1.002092e+02
1.001921e+02
1.001750e+02
1.001579e+02
1.001408e+02
1.001237e+02
1.001066e+02
1.000895e+02
1.000724e+02
1.000553e+02
1.000382e+02
1.000211e+02
1.000040e+02
9.998687e+01
9.996977e+01
9.995267e+01
9.993557e+01
9.991847e+01
9.990137e+01
9.988427e+01
9.986717e+01
9.985006e+01
1.007607e+02
1.007436e+02
1.007265e+02
1.007094e+02
1.006923e+02
1.006752e+02
1.006581e+02
1.006410e+02
1.006239e+02
1.006068e+02
1.005897e+02
1.005726e+02
1.005555e+02
1.005384e+02
1.005213e+02
1.005042e+02
1.004871e+02
1.004700e+02
1.004529e+02
1.004358e+02
1.004187e+02
1.004016e+02
1.003845e+02
1.003674e+02
1.003503e+02
1.003332e+02
1.003161e+02
1.002990e+02
1.002819e+02
1.002648e+02
1.002477e+02
1.002306e+02
1.002135e+02
1.001964e+02
1.001793e+02
1.001622e+02
1.001451e+02
1.001280e+02
1.001109e+02
1.000938e+02
1.000767e+02
1.000596e+02
1.000425e+02
1.000254e+02
1.000083e+02
9.999119e+01
9.997409e+01
9.995699e+01
9.993989e+01
9.992279e+01
9.990569e+01
9.988858e+01
9.987148e+01
9.985438e+01
9.983728e+01
9.982018e+01
9.980308e+01
1.007138e+02
1.006967e+02
1.006795e+02
1.006624e+02
1.006453e+02
1.006282e+02
1.006111e+02
1.005940e+02
1.005769e+02
1.005598e+02
1.005427e+02
1.005256e+02
1.005085e+02
1.004914e+02
1.004743e+02
1.004572e+02
1.004401e+02
1.004230e+02
1.004059e+02
1.003888e+02
1.003717e+02
1.003546e+02
1.003375e+02
1.003204e+02
1.003033e+02
1.002862e+02
1.002691e+02
1.002520e+02
1.002349e+02
1.002178e+02
1.002007e+02
1.001836e+02
1.001665e+02
1.001494e+02
1.001323e+02
1.001152e+02
1.000981e+02
1.000810e+02
1.000639e+02
1.000468e+02
1.000297e+02
1.000126e+02
9.999551e+01
9.997841e+01
9.996131e+01
9.994421e+01
9.992711e+01
9.991000e+01
9.989290e+01
9.987580e+01
9.985870e+01
9.984160e+01
9.982450e+01
9.980740e+01
9.979030e+01
9.977320e+01
9.975609e+01
1.006668e+02
1.006497e+02
1.006326e+02
1.006155e+02
1.005984e+02
1.005813e+02
1.005642e+02
1.005471e+02
1.005300e+02
1.005129e+02
1.004958e+02
1.004787e+02
1.004616e+02
1.004445e+02
1.004274e+02
1.004103e+02
1.003932e+02
1.003760e+02
1.003589e+02
1.003418e+02
1.003247e+02
1.003076e+02
1.002905e+02
1.002734e+02
1.002563e+02
1.002392e+02
1.002221e+02
1.002050e+02
1.001879e+02
1.001708e+02
1.001537e+02
1.001366e+02
1.001195e+02
1.001024e+02
1.000853e+02
1.000682e+02
1.000511e+02
1.000340e+02
1.000169e+02
9.999983e+01
9.998273e+01
9.996563e+01
9.994852e+01
9.993142e+01
9.991432e+01
9.989722e+01
9.988012e+01
9.986302e+01
9.984592e+01
9.982882e+01
9.981172e+01
9.979462e+01
9.977751e+01
9.976041e+01
9.974331e+01
9.972621e+01
9.970911e+01
1.006198e+02
1.006027e+02
1.005856e+02
1.005685e+02
1.005514e+02
1.005343e+02
1.005172e+02
1.005001e+02
1.004830e+02
1.004659e+02
1.004488e+02
1.004317e+02
1.004146e+02
1.003975e+02
1.003804e+02
1.003633e+02
1.003462e+02
1.003291e+02
1.003120e+02
1.002949e+02
1.002778e+02
1.002607e+02
1.002436e+02
1.002265e+02
1.002094e+02
1.001923e+02
1.001752e+02
1.001581e+02
1.001410e+02
1.001239e+02
1.001068e+02
1.000897e+02
1.000725e+02
1.000554e+02
1.000383e+02
1.000212e+02
1.000041e+02
9.998704e+01
9.996994e+01
9.995284e+01
9.993574e+01
9.991864e+01
9.990154e+01
9.988444e+01
9.986734e+01
9.985024e+01
9.983314e+01
9.981603e+01
9.979893e+01
9.978183e+01
9.976473e+01
9.974763e+01
9.973053e+01
9.971343e+01
9.969633e+01
9.967923e+01
9.966213e+01
1.005728e+02
1.005557e+02
1.005386e+02
1.005215e+02
1.005044e+02
1.004873e+02
1.004702e+02
1.004531e+02
1.004360e+02
1.004189e+02
1.004018e+02
1.003847e+02
1.003676e+02
1.003505e+02
1.003334e+02
1.003163e+02
1.002992e+02
1.002821e+02
1.002650e+02
1.002479e+02
1.002308e+02
1.002137e+02
1.001966e+02
1.001795e+02
1.001624e+02
1.001453e+02
1.001282e+02
1.001111e+02
1.000940e+02
1.000769e+02
1.000598e+02
1.000427e+02
1.000256e+02
1.000085e+02
9.999136e+01
9.997426e+01
9.995716e+01
9.994006e+01
9.992296e+01
9.990586e+01
9.988876e+01
9.987166e+01
9.985456e+01
9.983745e+01
9.982035e+01
9.980325e+01
9.978615e+01
9.976905e+01
9.975195e+01
9.973485e+01
9.971775e+01
9.970065e+01
9.968355e+01
9.966644e+01
9.964934e+01
9.963224e+01
9.961514e+01
1.005258e+02
1.005087e+02
1.004916e+02
1.004745e+02
1.004574e+02
1.004403e+02
1.004232e+02
1.004061e+02
1.003890e+02
1.003719e+02
1.003548e+02
1.003377e+02
1.003206e+02
1.003035e+02
1.002864e+02
1.002693e+02
1.002522e+02
1.002351e+02
1.002180e+02
1.002009e+02
1.001838e+02
1.001667e+02
1.001496e+02
1.001325e+02
1.001154e+02
1.000983e+02
1.000812e+02
1.000641e+02
1.000470e+02
1.000299e+02
1.000128e+02
9.999568e+01
9.997858e+01
9.996148e+01
9.994438e+01
9.992728e+01
9.991018e+01
9.989308e+01
9.987597e+01
9.985887e+01
9.984177e+01
9.982467e+01
9.980757e+01
9.979047e+01
9.977337e+01
9.975627e+01
9.973917e+01
9.972207e+01
9.970496e+01
9.968786e+01
9.967076e+01
9.965366e+01
9.963656e+01
9.961946e+01
9.960236e+01
9.958526e+01
9.956816e+01
1.004788e+02
1.004617e+02
1.004446e+02
1.004275e+02
1.004104e+02
1.003933e+02
1.003762e+02
1.003591e+02
1.003420e+02
1.003249e+02
1.003078e+02
1.002907e+02
1.002736e+02
1.002565e+02
1.002394e+02
1.002223e+02
1.002052e+02
1.001881e+02
1.001710e+02
1.001539e+02
1.001368e+02
1.001197e+02
1.001026e+02
1.000855e+02
1.000684e+02
1.000513e+02
1.000342e+02
1.000171e+02
1.000000e+02
9.998290e+01
9.996580e+01
9.994870e+01
9.993160e+01
9.991449e+01
9.989739e+01
9.988029e+01
9.986319e+01
9.984609e+01
9.982899e+01
9.981189e+01
9.979479e+01
9.977769e+01
9.976059e+01
9.974348e+01
9.972638e+01
9.970928e+01
9.969218e+01
9.967508e+01
9.965798e+01
9.964088e+01
9.962378e+01
9.960668e+01
9.958958e+01
9.957247e+01
9.955537e+01
9.953827e+01
9.952117e+01
1.004318e+02
1.004147e+02
1.003976e+02
1.003805e+02
1.003634e+02
1.003463e+02
1.003292e+02
1.003121e+02
1.002950e+02
1.002779e+02
1.002608e+02
1.002437e+02
1.002266e+02
1.002095e+02
1.001924e+02
1.001753e+02
1.001582e+02
1.001411e+02
1.001240e+02
1.001069e+02
1.000898e+02
1.000727e+02
1.000556e+02
1.000385e+02
1.000214e+02
1.000043e+02
9.998722e+01
9.997012e+01
9.995302e+01
9.993591e+01
9.991881e+01
9.990171e+01
9.988461e+01
9.986751e+01
9.985041e+01
9.983331e+01
9.981621e+01
9.979911e+01
9.978201e+01
9.976490e+01
9.974780e+01
9.973070e+01
9.971360e+01
9.969650e+01
9.967940e+01
9.966230e+01
9.964520e+01
9.962810e+01
9.961100e+01
9.959389e+01
9.957679e+01
9.955969e+01
9.954259e+01
9.952549e+01
9.950839e+01
9.949129e+01
9.947419e+01
1.003849e+02
1.003678e+02
1.003507e+02
1.003336e+02
1.003165e+02
1.002994e+02
1.002823e+02
1.002652e+02
1.002481e+02
1.002309e+02
1.002138e+02
1.001967e+02
1.001796e+02
1.001625e+02
1.001454e+02
1.001283e+02
1.001112e+02
1.000941e+02
1.000770e+02
1.000599e+02
1.000428e+02
1.000257e+02
1.000086e+02
9.999154e+01
9.997443e+01
9.995733e+01
9.994023e+01
9.992313e+01
9.990603e+01
9.988893e+01
9.987183e+01
9.985473e+01
9.983763e+01
9.982053e+01
9.980342e+01
9.978632e+01
9.976922e+01
9.975212e+01
9.973502e+01
9.971792e+01
9.970082e+01
9.968372e+01
9.966662e+01
9.964952e+01
9.963241e+01
9.961531e+01
9.959821e+01
9.958111e+01
9.956401e+01
9.954691e+01
9.952981e+01
9.951271e+01
9.949561e+01
9.947851e+01
9.946140e+01
9.944430e+01
9.942720e+01
1.003379e+02
1.003208e+02
1.003037e+02
1.002866e+02
1.002695e+02
1.002524e+02
1.002353e+02
1.002182e+02
1.002011e+02
1.001840e+02
1.001669e+02
1.001498e+02
1.001327e+02
1.001156e+02
1.000985e+02
1.000814e+02
1.000643e+02
1.000472e+02
1.000301e+02
1.000130e+02
9.999585e+01
9.997875e+01
9.996165e+01
9.994455e+01
9.992745e+01
9.991035e+01
9.989325e+01
9.987615e+01
9.985905e+01
9.984195e+01
9.982484e+01
9.980774e+01
9.979064e+01
9.977354e+01
9.975644e+01
9.973934e+01
9.972224e+01
9.970514e+01
9.968804e+01
9.967094e+01
9.965383e+01
9.963673e+01
9.961963e+01
9.960253e+01
9.958543e+01
9.956833e+01
9.955123e+01
9.953413e+01
9.951703e+01
9.949992e+01
9.948282e+01
9.946572e+01
9.944862e+01
9.943152e+01
9.941442e+01
9.939732e+01
9.938022e+01
1.002909e+02
1.002738e+02
1.002567e+02
1.002396e+02
1.002225e+02
1.002054e+02
1.001883e+02
1.001712e+02
1.001541e+02
1.001370e+02
1.001199e+02
1.001028e+02
1.000857e+02
1.000686e+02
1.000515e+02
1.000344e+02
1.000173e+02
1.000002e+02
9.998307e+01
9.996597e+01
9.994887e+01
9.993177e+01
9.991467e+01
9.989757e+01
9.988047e+01
9.986336e+01
9.984626e+01
9.982916e+01
9.981206e+01
9.979496e+01
9.977786e+01
9.976076e+01
9.974366e+01
9.972656e+01
9.970946e+01
9.969235e+01
9.967525e+01
9.965815e+01
9.964105e+01
9.962395e+01
9.960685e+01
9.958975e+01
9.957265e+01
9.955555e+01
9.953845e+01
9.952134e+01
9.950424e+01
9.948714e+01
9.947004e+01
9.945294e+01
9.943584e+01
9.941874e+01
9.940164e+01
9.938454e+01
9.936744e+01
9.935033e+01
9.933323e+01
1.002439e+02
1.002268e+02
1.002097e+02
1.001926e+02
1.001755e+02
1.001584e+02
1.001413e+02
1.001242e+02
1.001071e+02
1.000900e+02
1.000729e+02
1.000558e+02
1.000387e+02
1.000216e+02
1.000045e+02
9.998739e+01
9.997029e+01
9.995319e+01
9.993609e+01
9.991899e+01
9.990188e+01
9.988478e+01
9.986768e+01
9.985058e+01
9.983348e+01
9.981638e+01
9.979928e+01
9.978218e+01
9.976508e+01
9.974798e+01
9.973087e+01
9.971377e+01
9.969667e+01
9.967957e+01
9.966247e+01
9.964537e+01
9.962827e+01
9.961117e+01
9.959407e+01
9.957697e+01
9.955986e+01
9.954276e+01
9.952566e+01
9.950856e+01
9.949146e+01
9.947436e+01
9.945726e+01
9.944016e+01
9.942306e+01
9.940596e+01
9.938885e+01
9.937175e+01
9.935465e+01
9.933755e+01
9.932045e+01
9.930335e+01
9.928625e+01
1.001969e+02
1.001798e+02
1.001627e+02
1.001456e+02
1.001285e+02
1.001114e+02
1.000943e+02
1.000772e+02
1.000601e+02
1.000430e+02
1.000259e+02
1.000088e+02
9.999171e+01
9.997461e+01
9.995751e+01
9.994041e+01
9.992330e+01
9.990620e+01
9.988910e+01
9.987200e+01
9.985490e+01
9.983780e+01
9.982070e+01
9.980360e+01
9.978650e+01
9.976940e+01
9.975229e+01
9.973519e+01
9.971809e+01
9.970099e+01
9.968389e+01
9.966679e+01
9.964969e+01
9.963259e+01
9.961549e+01
9.959839e+01
9.958128e+01
9.956418e+01
9.954708e+01
9.952998e+01
9.951288e+01
9.949578e+01
9.947868e+01
9.946158e+01
9.944448e+01
9.942738e+01
9.941027e+01
9.939317e+01
9.937607e+01
9.935897e+01
9.934187e+01
9.932477e+01
9.930767e+01
9.929057e+01
9.927347e+01
9.925637e+01
9.923926e+01
1.001499e+02
1.001328e+02
1.001157e+02
1.000986e+02
1.000815e+02
1.000644e+02
1.000473e+02
1.000302e+02
1.000131e+02
9.999603e+01
9.997893e+01
9.996182e+01
9.994472e+01
9.992762e+01
9.991052e+01
9.989342e+01
9.987632e+01
9.985922e+01
9.984212e+01
9.982502e+01
9.980792e+01
9.979081e+01
9.977371e+01
9.975661e+01
9.973951e+01
9.972241e+01
9.970531e+01
9.968821e+01
9.967111e+01
9.965401e+01
9.963691e+01
9.961980e+01
9.960270e+01
9.958560e+01
9.956850e+01
9.955140e+01
9.953430e+01
9.951720e+01
9.950010e+01
9.948300e+01
9.946590e+01
9.944879e+01
9.943169e+01
9.941459e+01
9.939749e+01
9.938039e+01
9.936329e+01
9.934619e+01
9.932909e+01
9.931199e+01
9.929489e+01
9.927778e+01
9.926068e+01
9.924358e+01
9.922648e+01
9.920938e+01
9.919228e+01
1.001030e+02
1.000859e+02
1.000687e+02
1.000516e+02
1.000345e+02
1.000174e+02
1.000003e+02
9.998324e+01
9.996614e+01
9.994904e+01
9.993194e+01
9.991484e+01
9.989774e+01
9.988064e+01
9.986354e+01
9.984644e+01
9.982934e+01
9.981223e+01
9.979513e+01
9.977803e+01
9.976093e+01
9.974383e+01
9.972673e+01
9.970963e+01
9.969253e+01
9.967543e+01
9.965832e+01
9.964122e+01
9.962412e+01
9.960702e+01
9.958992e+01
9.957282e+01
9.955572e+01
9.953862e+01
9.952152e+01
9.950442e+01
9.948731e+01
9.947021e+01
9.945311e+01
9.943601e+01
9.941891e+01
9.940181e+01
9.938471e+01
9.936761e+01
9.935051e+01
9.933341e+01
9.931630e+01
9.929920e+01
9.928210e+01
9.926500e+01
9.924790e+01
9.923080e+01
9.921370e+01
9.919660e+01
9.917950e+01
9.916240e+01
9.914529e+01
1.000560e+02
1.000389e+02
1.000218e+02
1.000047e+02
9.998756e+01
9.997046e+01
9.995336e+01
9.993626e+01
9.991916e+01
9.990206e+01
9.988496e+01
9.986786e+01
9.985075e+01
9.983365e+01
9.981655e+01
9.979945e+01
9.978235e+01
9.976525e+01
9.974815e+01
9.973105e+01
9.971395e+01
9.969685e+01
9.967974e+01
9.966264e+01
9.964554e+01
9.962844e+01
9.961134e+01
9.959424e+01
9.957714e+01
9.956004e+01
9.954294e+01
9.952584e+01
9.950873e+01
9.949163e+01
9.947453e+01
9.945743e+01
9.944033e+01
9.942323e+01
9.940613e+01
9.938903e+01
9.937193e+01
9.935483e+01
9.933772e+01
9.932062e+01
9.930352e+01
9.928642e+01
9.926932e+01
9.925222e+01
9.923512e+01
9.921802e+01
9.920092e+01
9.918382e+01
9.916671e+01
9.914961e+01
9.913251e+01
9.911541e+01
9.909831e+01
1.000090e+02
9.999188e+01
9.997478e+01
9.995768e+01
9.994058e+01
9.992348e+01
9.990638e+01
9.988927e+01
9.987217e+01
9.985507e+01
9.983797e+01
9.982087e+01
9.980377e+01
9.978667e+01
9.976957e+01
9.975247e+01
9.973537e+01
9.971826e+01
9.970116e+01
9.968406e+01
9.966696e+01
9.964986e+01
9.963276e+01
9.961566e+01
9.959856e+01
9.958146e+01
9.956436e+01
9.954725e+01
9.953015e+01
9.951305e+01
9.949595e+01
9.947885e+01
9.946175e+01
9.944465e+01
9.942755e+01
9.941045e+01
9.939335e+01
9.937624e+01
9.935914e+01
9.934204e+01
9.932494e+01
9.930784e+01
9.929074e+01
9.927364e+01
9.925654e+01
9.923944e+01
9.922234e+01
9.920523e+01
9.918813e+01
9.917103e+01
9.915393e+01
9.913683e+01
9.911973e+01
9.910263e+01
9.908553e+01
9.906843e+01
9.905133e+01
9.996200e+01
9.994490e+01
9.992780e+01
9.991069e+01
9.989359e+01
9.987649e+01
9.985939e+01
9.984229e+01
9.982519e+01
9.980809e+01
9.979099e+01
9.977389e+01
9.975679e+01
9.973968e+01
9.972258e+01
9.970548e+01
9.968838e+01
9.967128e+01
9.965418e+01
9.963708e+01
9.961998e+01
9.960288e+01
9.958578e+01
9.956867e+01
9.955157e+01
9.953447e+01
9.951737e+01
9.950027e+01
9.948317e+01
9.946607e+01
9.944897e+01
9.943187e+01
9.941477e+01
9.939766e+01
9.938056e+01
9.936346e+01
9.934636e+01
9.932926e+01
9.931216e+01
9.929506e+01
9.927796e+01
9.926086e+01
9.924375e+01
9.922665e+01
9.920955e+01
9.919245e+01
9.917535e+01
9.915825e+01
9.914115e+01
9.912405e+01
9.910695e+01
9.908985e+01
9.907274e+01
9.905564e+01
9.903854e+01
9.902144e+01
9.900434e+01
9.991501e+01
9.989791e+01
9.988081e+01
9.986371e+01
9.984661e+01
9.982951e+01
9.981241e+01
9.979531e+01
9.977820e+01
9.976110e+01
9.974400e+01
9.972690e+01
9.970980e+01
9.969270e+01
9.967560e+01
9.965850e+01
9.964140e+01
9.962430e+01
9.960719e+01
9.959009e+01
9.957299e+01
9.955589e+01
9.953879e+01
9.952169e+01
9.950459e+01
9.948749e+01
9.947039e+01
9.945329e+01
9.943618e+01
9.941908e+01
9.940198e+01
9.938488e+01
9.936778e+01
9.935068e+01
9.933358e+01
9.931648e+01
9.929938e+01
9.928228e+01
9.926517e+01
9.924807e+01
9.923097e+01
9.921387e+01
9.919677e+01
9.917967e+01
9.916257e+01
9.914547e+01
9.912837e+01
9.911127e+01
9.909416e+01
9.907706e+01
9.905996e+01
9.904286e+01
9.902576e+01
9.900866e+01
9.899156e+01
9.897446e+01
9.895736e+01
9.986803e+01
9.985093e+01
9.983383e+01
9.981672e+01
9.979962e+01
9.978252e+01
9.976542e+01
9.974832e+01
9.973122e+01
9.971412e+01
9.969702e+01
9.967992e+01
9.966282e+01
9.964571e+01
9.962861e+01
9.961151e+01
9.959441e+01
9.957731e+01
9.956021e+01
9.954311e+01
9.952601e+01
9.950891e+01
9.949181e+01
9.947470e+01
9.945760e+01
9.944050e+01
9.942340e+01
9.940630e+01
9.938920e+01
9.937210e+01
9.935500e+01
9.933790e+01
9.932080e+01
9.930369e+01
9.928659e+01
9.926949e+01
9.925239e+01
9.923529e+01
9.921819e+01
9.920109e+01
9.918399e+01
9.916689e+01
9.914979e+01
9.913268e+01
9.911558e+01
9.909848e+01
9.908138e+01
9.906428e+01
9.904718e+01
9.903008e+01
9.901298e+01
9.899588e+01
9.897878e+01
9.896167e+01
9.894457e+01
9.892747e+01
9.891037e+01
9.982104e+01
9.980394e+01
9.978684e+01
9.976974e+01
9.975264e+01
9.973554e+01
9.971844e+01
9.970134e+01
9.968424e+01
9.966713e+01
9.965003e+01
9.963293e+01
9.961583e+01
9.959873e+01
9.958163e+01
9.956453e+01
9.954743e+01
9.953033e+01
9.951323e+01
9.949612e+01
9.947902e+01
9.946192e+01
9.944482e+01
9.942772e+01
9.941062e+01
9.939352e+01
9.937642e+01
9.935932e+01
9.934222e+01
9.932511e+01
9.930801e+01
9.929091e+01
9.927381e+01
9.925671e+01
9.923961e+01
9.922251e+01
9.920541e+01
9.918831e+01
9.917121e+01
9.915410e+01
9.913700e+01
9.911990e+01
9.910280e+01
9.908570e+01
9.906860e+01
9.905150e+01
9.903440e+01
9.901730e+01
9.900020e+01
9.898309e+01
9.896599e+01
9.894889e+01
9.893179e+01
9.891469e+01
9.889759e+01
9.888049e+01
9.886339e+01
9.977406e+01
9.975696e+01
9.973986e+01
9.972276e+01
9.970565e+01
9.968855e+01
9.967145e+01
9.965435e+01
9.963725e+01
9.962015e+01
9.960305e+01
9.958595e+01
9.956885e+01
9.955175e+01
9.953464e+01
9.951754e+01
9.950044e+01
9.948334e+01
9.946624e+01
9.944914e+01
9.943204e+01
9.941494e+01
9.939784e+01
9.938074e+01
9.936363e+01
9.934653e+01
9.932943e+01
9.931233e+01
9.929523e+01
9.927813e+01
9.926103e+01
9.924393e+01
9.922683e+01
9.920973e+01
9.919262e+01
9.917552e+01
9.915842e+01
9.914132e+01
9.912422e+01
9.910712e+01
9.909002e+01
9.907292e+01
9.905582e+01
9.903872e+01
9.902161e+01
9.900451e+01
9.898741e+01
9.897031e+01
9.895321e+01
9.893611e+01
9.891901e+01
9.890191e+01
9.888481e+01
9.886771e+01
9.885060e+01
9.883350e+01
9.881640e+01
9.972707e+01
9.970997e+01
9.969287e+01
9.967577e+01
9.965867e+01
9.964157e+01
9.962447e+01
9.960737e+01
9.959027e+01
9.957317e+01
9.955606e+01
9.953896e+01
9.952186e+01
9.950476e+01
9.948766e+01
9.947056e+01
9.945346e+01
9.943636e+01
9.941926e+01
9.940215e+01
9.938505e+01
9.936795e+01
9.935085e+01
9.933375e+01
9.931665e+01
9.929955e+01
9.928245e+01
9.926535e+01
9.924825e+01
9.923114e+01
9.921404e+01
9.919694e+01
9.917984e+01
9.916274e+01
9.914564e+01
9.912854e+01
9.911144e+01
9.909434e+01
9.907724e+01
9.906013e+01
9.904303e+01
9.902593e+01
9.900883e+01
9.899173e+01
9.897463e+01
9.895753e+01
9.894043e+01
9.892333e+01
9.890623e+01
9.888912e+01
9.887202e+01
9.885492e+01
9.883782e+01
9.882072e+01
9.880362e+01
9.878652e+01
9.876942e+01
9.968009e+01
9.966299e+01
9.964589e+01
9.962879e+01
9.961169e+01
9.959458e+01
9.957748e+01
9.956038e+01
9.954328e+01
9.952618e+01
9.950908e+01
9.949198e+01
9.947488e+01
9.945778e+01
9.944068e+01
9.942357e+01
9.940647e+01
9.938937e+01
9.937227e+01
9.935517e+01
9.933807e+01
9.932097e+01
9.930387e+01
9.928677e+01
9.926967e+01
9.925256e+01
9.923546e+01
9.921836e+01
9.920126e+01
9.918416e+01
9.916706e+01
9.914996e+01
9.913286e+01
9.911576e+01
9.909866e+01
9.908155e+01
9.906445e+01
9.904735e+01
9.903025e+01
9.901315e+01
9.899605e+01
9.897895e+01
9.896185e+01
9.894475e+01
9.892765e+01
9.891054e+01
9.889344e+01
9.887634e+01
9.885924e+01
9.884214e+01
9.882504e+01
9.880794e+01
9.879084e+01
9.877374e+01
9.875664e+01
9.873953e+01
9.872243e+01
9.963310e+01
9.961600e+01
9.959890e+01
9.958180e+01
9.956470e+01
9.954760e+01
9.953050e+01
9.951340e+01
9.949630e+01
9.947920e+01
9.946209e+01
9.944499e+01
9.942789e+01
9.941079e+01
9.939369e+01
9.937659e+01
9.935949e+01
9.934239e+01
9.932529e+01
9.930819e+01
9.929108e+01
9.927398e+01
9.925688e+01
9.923978e+01
9.922268e+01
9.920558e+01
9.918848e+01
9.917138e+01
9.915428e+01
9.913718e+01
9.912007e+01
9.910297e+01
9.908587e+01
9.906877e+01
9.905167e+01
9.903457e+01
9.901747e+01
9.900037e+01
9.898327e+01
9.896617e+01
9.894906e+01
9.893196e+01
9.891486e+01
9.889776e+01
9.888066e+01
9.886356e+01
9.884646e+01
9.882936e+01
9.881226e+01
9.879516e+01
9.877805e+01
9.876095e+01
9.874385e+01
9.872675e+01
9.870965e+01
9.869255e+01
9.867545e+01
9.958612e+01
9.956902e+01
9.955192e+01
9.953482e+01
9.951772e+01
9.950062e+01
9.948351e+01
9.946641e+01
9.944931e+01
9.943221e+01
9.941511e+01
9.939801e+01
9.938091e+01
9.936381e+01
9.934671e+01
9.932961e+01
9.931250e+01
9.929540e+01
9.927830e+01
9.926120e+01
9.924410e+01
9.922700e+01
9.920990e+01
9.919280e+01
9.917570e+01
9.915860e+01
9.914149e+01
9.912439e+01
9.910729e+01
9.909019e+01
9.907309e+01
9.905599e+01
9.903889e+01
9.902179e+01
9.900469e+01
9.898758e+01
9.897048e+01
9.895338e+01
9.893628e+01
9.891918e+01
9.890208e+01
9.888498e+01
9.886788e+01
9.885078e+01
9.883368e+01
9.881657e+01
9.879947e+01
9.878237e+01
9.876527e+01
9.874817e+01
9.873107e+01
9.871397e+01
9.869687e+01
9.867977e+01
9.866267e+01
9.864556e+01
9.862846e+01
9.953914e+01
9.952203e+01
9.950493e+01
9.948783e+01
9.947073e+01
9.945363e+01
9.943653e+01
9.941943e+01
9.940233e+01
9.938523e+01
9.936813e+01
9.935102e+01
9.933392e+01
9.931682e+01
9.929972e+01
9.928262e+01
9.926552e+01
9.924842e+01
9.923132e+01
9.921422e+01
9.919712e+01
9.918001e+01
9.916291e+01
9.914581e+01
9.912871e+01
9.911161e+01
9.909451e+01
9.907741e+01
9.906031e+01
9.904321e+01
9.902611e+01
9.900900e+01
9.899190e+01
9.897480e+01
9.895770e+01
9.894060e+01
9.892350e+01
9.890640e+01
9.888930e+01
9.887220e+01
9.885510e+01
9.883799e+01
9.882089e+01
9.880379e+01
9.878669e+01
9.876959e+01
9.875249e+01
9.873539e+01
9.871829e+01
9.870119e+01
9.868409e+01
9.866698e+01
9.864988e+01
9.863278e+01
9.861568e+01
9.859858e+01
9.858148e+01
