# vtk DataFile Version 3.4
Image
ASCII
DATASET STRUCTURED_POINTS
DIMENSIONS 57 40 1
ORIGIN 0.000000 0.000000 0.000000
SPACING 1.000000 1.000000 1.000000
POINT_DATA 2280
SCALARS facies float 1
LOOKUP_TABLE default
1.000236e+02
1.000234e+02
1.000232e+02
1.000231e+02
1.000229e+02
1.000227e+02
1.000225e+02
1.000224e+02
1.000222e+02
1.000220e+02
1.000218e+02
1.000217e+02
1.000215e+02
1.000213e+02
1.000211e+02
1.000210e+02
1.000208e+02
1.000206e+02
1.000204e+02
1.000203e+02
1.000201e+02
1.000199e+02
1.000198e+02
1.000196e+02
1.000194e+02
1.000192e+02
1.000191e+02
1.000189e+02
1.000187e+02
1.000185e+02
1.000184e+02
1.000182e+02
1.000180e+02
1.000178e+02
1.000177e+02
1.000175e+02
1.000173e+02
1.000171e+02
1.000170e+02
1.000168e+02
1.000166e+02
1.000165e+02
1.000163e+02
1.000161e+02
1.000159e+02
1.000158e+02
1.000156e+02
1.000154e+02
1.000152e+02
1.000151e+02
1.000149e+02
1.000147e+02
1.000145e+02
1.000144e+02
1.000142e+02
1.000140e+02
1.000138e+02
1.000226e+02
1.000224e+02
1.000222e+02
1.000221e+02
1.000219e+02
1.000217e+02
1.000215e+02
1.000214e+02
1.000212e+02
1.000210e+02
1.000209e+02
1.000207e+02
1.000205e+02
1.000203e+02
1.000202e+02
1.000200e+02
1.000198e+02
1.000196e+02
1.000195e+02
1.000193e+02
1.000191e+02
1.000189e+02
1.000188e+02
1.000186e+02
1.000184e+02
1.000182e+02
1.000181e+02
1.000179e+02
1.000177e+02
1.000176e+02
1.000174e+02
1.000172e+02
1.000170e+02
1.000169e+02
1.000167e+02
1.000165e+02
1.000163e+02
1.000162e+02
1.000160e+02
1.000158e+02
1.000156e+02
1.000155e+02
1.000153e+02
1.000151e+02
1.000149e+02
1.000148e+02
1.000146e+02
1.000144e+02
1.000143e+02
1.000141e+02
1.000139e+02
1.000137e+02
1.000136e+02
1.000134e+02
1.000132e+02
1.000130e+02
1.000129e+02
1.000216e+02
1.000214e+02
1.000213e+02
1.000211e+02
1.000209e+02
1.000207e+02
1.000206e+02
1.000204e+02
1.000202e+02
1.000200e+02
1.000199e+02
1.000197e+02
1.000195e+02
1.000193e+02
1.000192e+02
1.000190e+02
1.000188e+02
1.000187e+02
1.000185e+02
1.000183e+02
1.000181e+02
1.000180e+02
1.000178e+02
1.000176e+02
1.000174e+02
1.000173e+02
1.000171e+02
1.000169e+02
1.000167e+02
1.000166e+02
1.000164e+02
1.000162e+02
1.000160e+02
1.000159e+02
1.000157e+02
1.000155e+02
1.000154e+02
1.000152e+02
1.000150e+02
1.000148e+02
1.000147e+02
1.000145e+02
1.000143e+02
1.000141e+02
1.000140e+02
1.000138e+02
1.000136e+02
1.000134e+02
1.000133e+02
1.000131e+02
1.000129e+02
1.000127e+02
1.000126e+02
1.000124e+02
1.000122e+02
1.000121e+02
1.000119e+02
1.000206e+02
1.000204e+02
1.000203e+02
1.000201e+02
1.000199e+02
1.000198e+02
1.000196e+02
1.000194e+02
1.000192e+02
1.000191e+02
1.000189e+02
1.000187e+02
1.000185e+02
1.000184e+02
1.000182e+02
1.000180e+02
1.000178e+02
1.000177e+02
1.000175e+02
1.000173e+02
1.000171e+02
1.000170e+02
1.000168e+02
1.000166e+02
1.000165e+02
1.000163e+02
1.000161e+02
1.000159e+02
1.000158e+02
1.000156e+02
1.000154e+02
1.000152e+02
1.000151e+02
1.000149e+02
1.000147e+02
1.000145e+02
1.000144e+02
1.000142e+02
1.000140e+02
1.000138e+02
1.000137e+02
1.000135e+02
1.000133e+02
1.000132e+02
1.000130e+02
1.000128e+02
1.000126e+02
1.000125e+02
1.000123e+02
1.000121e+02
1.000119e+02
1.000118e+02
1.000116e+02
1.000114e+02
1.000112e+02
1.000111e+02
1.000109e+02
1.000196e+02
1.000195e+02
1.000193e+02
1.000191e+02
1.000189e+02
1.000188e+02
1.000186e+02
1.000184e+02
1.000182e+02
1.000181e+02
1.000179e+02
1.000177e+02
1.000176e+02
1.000174e+02
1.000172e+02
1.000170e+02
1.000169e+02
1.000167e+02
1.000165e+02
1.000163e+02
1.000162e+02
1.000160e+02
1.000158e+02
1.000156e+02
1.000155e+02
1.000153e+02
1.000151e+02
1.000149e+02
1.000148e+02
1.000146e+02
1.000144e+02
1.000143e+02
1.000141e+02
1.000139e+02
1.000137e+02
1.000136e+02
1.000134e+02
1.000132e+02
1.000130e+02
1.000129e+02
1.000127e+02
1.000125e+02
1.000123e+02
1.000122e+02
1.000120e+02
1.000118e+02
1.000116e+02
1.000115e+02
1.000113e+02
1.000111e+02
1.000110e+02
1.000108e+02
1.000106e+02
1.000104e+02
1.000103e+02
1.000101e+02
1.000099e+02
1.000186e+02
1.000185e+02
1.000183e+02
1.000181e+02
1.000180e+02
1.000178e+02
1.000176e+02
1.000174e+02
1.000173e+02
1.000171e+02
1.000169e+02
1.000167e+02
1.000166e+02
1.000164e+02
1.000162e+02
1.000160e+02
1.000159e+02
1.000157e+02
1.000155e+02
1.000154e+02
1.000152e+02
1.000150e+02
1.000148e+02
1.000147e+02
1.000145e+02
1.000143e+02
1.000141e+02
1.000140e+02
1.000138e+02
1.000136e+02
1.000134e+02
1.000133e+02
1.000131e+02
1.000129e+02
1.000127e+02
1.000126e+02
1.000124e+02
1.000122e+02
1.000121e+02
1.000119e+02
1.000117e+02
1.000115e+02
1.000114e+02
1.000112e+02
1.000110e+02
1.000108e+02
1.000107e+02
1.000105e+02
1.000103e+02
1.000101e+02
1.000100e+02
1.000098e+02
1.000096e+02
1.000094e+02
1.000093e+02
1.000091e+02
1.000089e+02
1.000177e+02
1.000175e+02
1.000173e+02
1.000171e+02
1.000170e+02
1.000168e+02
1.000166e+02
1.000164e+02
1.000163e+02
1.000161e+02
1.000159e+02
1.000158e+02
1.000156e+02
1.000154e+02
1.000152e+02
1.000151e+02
1.000149e+02
1.000147e+02
1.000145e+02
1.000144e+02
1.000142e+02
1.000140e+02
1.000138e+02
1.000137e+02
1.000135e+02
1.000133e+02
1.000131e+02
1.000130e+02
1.000128e+02
1.000126e+02
1.000125e+02
1.000123e+02
1.000121e+02
1.000119e+02
1.000118e+02
1.000116e+02
1.000114e+02
1.000112e+02
1.000111e+02
1.000109e+02
1.000107e+02
1.000105e+02
1.000104e+02
1.000102e+02
1.000100e+02
1.000099e+02
1.000097e+02
1.000095e+02
1.000093e+02
1.000092e+02
1.000090e+02
1.000088e+02
1.000086e+02
1.000085e+02
1.000083e+02
1.000081e+02
1.000079e+02
1.000167e+02
1.000165e+02
1.000163e+02
1.000162e+02
1.000160e+02
1.000158e+02
1.000156e+02
1.000155e+02
1.000153e+02
1.000151e+02
1.000149e+02
1.000148e+02
1.000146e+02
1.000144e+02
1.000142e+02
1.000141e+02
1.000139e+02
1.000137e+02
1.000136e+02
1.000134e+02
1.000132e+02
1.000130e+02
1.000129e+02
1.000127e+02
1.000125e+02
1.000123e+02
1.000122e+02
1.000120e+02
1.000118e+02
1.000116e+02
1.000115e+02
1.000113e+02
1.000111e+02
1.000109e+02
1.000108e+02
1.000106e+02
1.000104e+02
1.000103e+02
1.000101e+02
1.000099e+02
1.000097e+02
1.000096e+02
1.000094e+02
1.000092e+02
1.000090e+02
1.000089e+02
1.000087e+02
1.000085e+02
1.000083e+02
1.000082e+02
1.000080e+02
1.000078e+02
1.000077e+02
1.000075e+02
1.000073e+02
1.000071e+02
1.000070e+02
1.000157e+02
1.000155e+02
1.000153e+02
1.000152e+02
1.000150e+02
1.000148e+02
1.000147e+02
1.000145e+02
1.000143e+02
1.000141e+02
1.000140e+02
1.000138e+02
1.000136e+02
1.000134e+02
1.000133e+02
1.000131e+02
1.000129e+02
1.000127e+02
1.000126e+02
1.000124e+02
1.000122e+02
1.000120e+02
1.000119e+02
1.000117e+02
1.000115e+02
1.000114e+02
1.000112e+02
1.000110e+02
1.000108e+02
1.000107e+02
1.000105e+02
1.000103e+02
1.000101e+02
1.000100e+02
1.000098e+02
1.000096e+02
1.000094e+02
1.000093e+02
1.000091e+02
1.000089e+02
1.000087e+02
1.000086e+02
1.000084e+02
1.000082e+02
1.000081e+02
1.000079e+02
1.000077e+02
1.000075e+02
1.000074e+02
1.000072e+02
1.000070e+02
1.000068e+02
1.000067e+02
1.000065e+02
1.000063e+02
1.000061e+02
1.000060e+02
1.000147e+02
1.000145e+02
1.000144e+02
1.000142e+02
1.000140e+02
1.000138e+02
1.000137e+02
1.000135e+02
1.000133e+02
1.000131e+02
1.000130e+02
1.000128e+02
1.000126e+02
1.000125e+02
1.000123e+02
1.000121e+02
1.000119e+02
1.000118e+02
1.000116e+02
1.000114e+02
1.000112e+02
1.000111e+02
1.000109e+02
1.000107e+02
1.000105e+02
1.000104e+02
1.000102e+02
1.000100e+02
1.000098e+02
1.000097e+02
1.000095e+02
1.000093e+02
1.000092e+02
1.000090e+02
1.000088e+02
1.000086e+02
1.000085e+02
1.000083e+02
1.000081e+02
1.000079e+02
1.000078e+02
1.000076e+02
1.000074e+02
1.000072e+02
1.000071e+02
1.000069e+02
1.000067e+02
1.000065e+02
1.000064e+02
1.000062e+02
1.000060e+02
1.000059e+02
1.000057e+02
1.000055e+02
1.000053e+02
1.000052e+02
1.000050e+02
1.000137e+02
1.000136e+02
1.000134e+02
1.000132e+02
1.000130e+02
1.000129e+02
1.000127e+02
1.000125e+02
1.000123e+02
1.000122e+02
1.000120e+02
1.000118e+02
1.000116e+02
1.000115e+02
1.000113e+02
1.000111e+02
1.000109e+02
1.000108e+02
1.000106e+02
1.000104e+02
1.000103e+02
1.000101e+02
1.000099e+02
1.000097e+02
1.000096e+02
1.000094e+02
1.000092e+02
1.000090e+02
1.000089e+02
1.000087e+02
1.000085e+02
1.000083e+02
1.000082e+02
1.000080e+02
1.000078e+02
1.000076e+02
1.000075e+02
1.000073e+02
1.000071e+02
1.000070e+02
1.000068e+02
1.000066e+02
1.000064e+02
1.000063e+02
1.000061e+02
1.000059e+02
1.000057e+02
1.000056e+02
1.000054e+02
1.000052e+02
1.000050e+02
1.000049e+02
1.000047e+02
1.000045e+02
1.000043e+02
1.000042e+02
1.000040e+02
1.000127e+02
1.000126e+02
1.000124e+02
1.000122e+02
1.000120e+02
1.000119e+02
1.000117e+02
1.000115e+02
1.000114e+02
1.000112e+02
1.000110e+02
1.000108e+02
1.000107e+02
1.000105e+02
1.000103e+02
1.000101e+02
1.000100e+02
1.000098e+02
1.000096e+02
1.000094e+02
1.000093e+02
1.000091e+02
1.000089e+02
1.000087e+02
1.000086e+02
1.000084e+02
1.000082e+02
1.000081e+02
1.000079e+02
1.000077e+02
1.000075e+02
1.000074e+02
1.000072e+02
1.000070e+02
1.000068e+02
1.000067e+02
1.000065e+02
1.000063e+02
1.000061e+02
1.000060e+02
1.000058e+02
1.000056e+02
1.000054e+02
1.000053e+02
1.000051e+02
1.000049e+02
1.000048e+02
1.000046e+02
1.000044e+02
1.000042e+02
1.000041e+02
1.000039e+02
1.000037e+02
1.000035e+02
1.000034e+02
1.000032e+02
1.000030e+02
1.000118e+02
1.000116e+02
1.000114e+02
1.000112e+02
1.000111e+02
1.000109e+02
1.000107e+02
1.000105e+02
1.000104e+02
1.000102e+02
1.000100e+02
1.000098e+02
1.000097e+02
1.000095e+02
1.000093e+02
1.000092e+02
1.000090e+02
1.000088e+02
1.000086e+02
1.000085e+02
1.000083e+02
1.000081e+02
1.000079e+02
1.000078e+02
1.000076e+02
1.000074e+02
1.000072e+02
1.000071e+02
1.000069e+02
1.000067e+02
1.000065e+02
1.000064e+02
1.000062e+02
1.000060e+02
1.000059e+02
1.000057e+02
1.000055e+02
1.000053e+02
1.000052e+02
1.000050e+02
1.000048e+02
1.000046e+02
1.000045e+02
1.000043e+02
1.000041e+02
1.000039e+02
1.000038e+02
1.000036e+02
1.000034e+02
1.000032e+02
1.000031e+02
1.000029e+02
1.000027e+02
1.000026e+02
1.000024e+02
1.000022e+02
1.000020e+02
1.000108e+02
1.000106e+02
1.000104e+02
1.000103e+02
1.000101e+02
1.000099e+02
1.000097e+02
1.000096e+02
1.000094e+02
1.000092e+02
1.000090e+02
1.000089e+02
1.000087e+02
1.000085e+02
1.000083e+02
1.000082e+02
1.000080e+02
1.000078e+02
1.000076e+02
1.000075e+02
1.000073e+02
1.000071e+02
1.000070e+02
1.000068e+02
1.000066e+02
1.000064e+02
1.000063e+02
1.000061e+02
1.000059e+02
1.000057e+02
1.000056e+02
1.000054e+02
1.000052e+02
1.000050e+02
1.000049e+02
1.000047e+02
1.000045e+02
1.000043e+02
1.000042e+02
1.000040e+02
1.000038e+02
1.000037e+02
1.000035e+02
1.000033e+02
1.000031e+02
1.000030e+02
1.000028e+02
1.000026e+02
1.000024e+02
1.000023e+02
1.000021e+02
1.000019e+02
1.000017e+02
1.000016e+02
1.000014e+02
1.000012e+02
1.000010e+02
1.000098e+02
1.000096e+02
1.000094e+02
1.000093e+02
1.000091e+02
1.000089e+02
1.000087e+02
1.000086e+02
1.000084e+02
1.000082e+02
1.000080e+02
1.000079e+02
1.000077e+02
1.000075e+02
1.000074e+02
1.000072e+02
1.000070e+02
1.000068e+02
1.000067e+02
1.000065e+02
1.000063e+02
1.000061e+02
1.000060e+02
1.000058e+02
1.000056e+02
1.000054e+02
1.000053e+02
1.000051e+02
1.000049e+02
1.000048e+02
1.000046e+02
1.000044e+02
1.000042e+02
1.000041e+02
1.000039e+02
1.000037e+02
1.000035e+02
1.000034e+02
1.000032e+02
1.000030e+02
1.000028e+02
1.000027e+02
1.000025e+02
1.000023e+02
1.000021e+02
1.000020e+02
1.000018e+02
1.000016e+02
1.000015e+02
1.000013e+02
1.000011e+02
1.000009e+02
1.000008e+02
1.000006e+02
1.000004e+02
1.000002e+02
1.000001e+02
1.000088e+02
1.000086e+02
1.000085e+02
1.000083e+02
1.000081e+02
1.000079e+02
1.000078e+02
1.000076e+02
1.000074e+02
1.000072e+02
1.000071e+02
1.000069e+02
1.000067e+02
1.000065e+02
1.000064e+02
1.000062e+02
1.000060e+02
1.000058e+02
1.000057e+02
1.000055e+02
1.000053e+02
1.000052e+02
1.000050e+02
1.000048e+02
1.000046e+02
1.000045e+02
1.000043e+02
1.000041e+02
1.000039e+02
1.000038e+02
1.000036e+02
1.000034e+02
1.000032e+02
1.000031e+02
1.000029e+02
1.000027e+02
1.000026e+02
1.000024e+02
1.000022e+02
1.000020e+02
1.000019e+02
1.000017e+02
1.000015e+02
1.000013e+02
1.000012e+02
1.000010e+02
1.000008e+02
1.000006e+02
1.000005e+02
1.000003e+02
1.000001e+02
9.999995e+01
9.999977e+01
9.999960e+01
9.999942e+01
9.999925e+01
9.999908e+01
1.000078e+02
1.000076e+02
1.000075e+02
1.000073e+02
1.000071e+02
1.000069e+02
1.000068e+02
1.000066e+02
1.000064e+02
1.000063e+02
1.000061e+02
1.000059e+02
1.000057e+02
1.000056e+02
1.000054e+02
1.000052e+02
1.000050e+02
1.000049e+02
1.000047e+02
1.000045e+02
1.000043e+02
1.000042e+02
1.000040e+02
1.000038e+02
1.000036e+02
1.000035e+02
1.000033e+02
1.000031e+02
1.000030e+02
1.000028e+02
1.000026e+02
1.000024e+02
1.000023e+02
1.000021e+02
1.000019e+02
1.000017e+02
1.000016e+02
1.000014e+02
1.000012e+02
1.000010e+02
1.000009e+02
1.000007e+02
1.000005e+02
1.000003e+02
1.000002e+02
1.000000e+02
9.999983e+01
9.999966e+01
9.999948e+01
9.999931e+01
9.999913e+01
9.999896e+01
9.999879e+01
9.999861e+01
9.999844e+01
9.999827e+01
9.999809e+01
1.000068e+02
1.000067e+02
1.000065e+02
1.000063e+02
1.000061e+02
1.000060e+02
1.000058e+02
1.000056e+02
1.000054e+02
1.000053e+02
1.000051e+02
1.000049e+02
1.000047e+02
1.000046e+02
1.000044e+02
1.000042e+02
1.000041e+02
1.000039e+02
1.000037e+02
1.000035e+02
1.000034e+02
1.000032e+02
1.000030e+02
1.000028e+02
1.000027e+02
1.000025e+02
1.000023e+02
1.000021e+02
1.000020e+02
1.000018e+02
1.000016e+02
1.000014e+02
1.000013e+02
1.000011e+02
1.000009e+02
1.000008e+02
1.000006e+02
1.000004e+02
1.000002e+02
1.000001e+02
9.999989e+01
9.999971e+01
9.999954e+01
9.999936e+01
9.999919e+01
9.999902e+01
9.999884e+01
9.999867e+01
9.999850e+01
9.999832e+01
9.999815e+01
9.999798e+01
9.999780e+01
9.999763e+01
9.999745e+01
9.999728e+01
9.999711e+01
1.000058e+02
1.000057e+02
1.000055e+02
1.000053e+02
1.000052e+02
1.000050e+02
1.000048e+02
1.000046e+02
1.000045e+02
1.000043e+02
1.000041e+02
1.000039e+02
1.000038e+02
1.000036e+02
1.000034e+02
1.000032e+02
1.000031e+02
1.000029e+02
1.000027e+02
1.000025e+02
1.000024e+02
1.000022e+02
1.000020e+02
1.000019e+02
1.000017e+02
1.000015e+02
1.000013e+02
1.000012e+02
1.000010e+02
1.000008e+02
1.000006e+02
1.000005e+02
1.000003e+02
1.000001e+02
9.999994e+01
9.999977e+01
9.999960e+01
9.999942e+01
9.999925e+01
9.999907e+01
9.999890e+01
9.999873e+01
9.999855e+01
9.999838e+01
9.999821e+01
9.999803e+01
9.999786e+01
9.999769e+01
9.999751e+01
9.999734e+01
9.999716e+01
9.999699e+01
9.999682e+01
9.999664e+01
9.999647e+01
9.999630e+01
9.999612e+01
1.000049e+02
1.000047e+02
1.000045e+02
1.000043e+02
1.000042e+02
1.000040e+02
1.000038e+02
1.000036e+02
1.000035e+02
1.000033e+02
1.000031e+02
1.000030e+02
1.000028e+02
1.000026e+02
1.000024e+02
1.000023e+02
1.000021e+02
1.000019e+02
1.000017e+02
1.000016e+02
1.000014e+02
1.000012e+02
1.000010e+02
1.000009e+02
1.000007e+02
1.000005e+02
1.000003e+02
1.000002e+02
1.000000e+02
9.999983e+01
9.999965e+01
9.999948e+01
9.999931e+01
9.999913e+01
9.999896e+01
9.999878e+01
9.999861e+01
9.999844e+01
9.999826e+01
9.999809e+01
9.999792e+01
9.999774e+01
9.999757e+01
9.999740e+01
9.999722e+01
9.999705e+01
9.999687e+01
9.999670e+01
9.999653e+01
9.999635e+01
9.999618e+01
9.999601e+01
9.999583e+01
9.999566e+01
9.999549e+01
9.999531e+01
9.999514e+01
1.000039e+02
1.000037e+02
1.000035e+02
1.000034e+02
1.000032e+02
1.000030e+02
1.000028e+02
1.000027e+02
1.000025e+02
1.000023e+02
1.000021e+02
1.000020e+02
1.000018e+02
1.000016e+02
1.000014e+02
1.000013e+02
1.000011e+02
1.000009e+02
1.000008e+02
1.000006e+02
1.000004e+02
1.000002e+02
1.000001e+02
9.999988e+01
9.999971e+01
9.999954e+01
9.999936e+01
9.999919e+01
9.999902e+01
9.999884e+01
9.999867e+01
9.999849e+01
9.999832e+01
9.999815e+01
9.999797e+01
9.999780e+01
9.999763e+01
9.999745e+01
9.999728e+01
9.999711e+01
9.999693e+01
9.999676e+01
9.999658e+01
9.999641e+01
9.999624e+01
9.999606e+01
9.999589e+01
9.999572e+01
9.999554e+01
9.999537e+01
9.999519e+01
9.999502e+01
9.999485e+01
9.999467e+01
9.999450e+01
9.999433e+01
9.999415e+01
1.000029e+02
1.000027e+02
1.000025e+02
1.000024e+02
1.000022e+02
1.000020e+02
1.000019e+02
1.000017e+02
1.000015e+02
1.000013e+02
1.000012e+02
1.000010e+02
1.000008e+02
1.000006e+02
1.000005e+02
1.000003e+02
1.000001e+02
9.999994e+01
9.999977e+01
9.999959e+01
9.999942e+01
9.999925e+01
9.999907e+01
9.999890e+01
9.999872e+01
9.999855e+01
9.999838e+01
9.999820e+01
9.999803e+01
9.999786e+01
9.999768e+01
9.999751e+01
9.999734e+01
9.999716e+01
9.999699e+01
9.999681e+01
9.999664e+01
9.999647e+01
9.999629e+01
9.999612e+01
9.999595e+01
9.999577e+01
9.999560e+01
9.999543e+01
9.999525e+01
9.999508e+01
9.999490e+01
9.999473e+01
9.999456e+01
9.999438e+01
9.999421e+01
9.999404e+01
9.999386e+01
9.999369e+01
9.999352e+01
9.999334e+01
9.999317e+01
1.000019e+02
1.000017e+02
1.000016e+02
1.000014e+02
1.000012e+02
1.000010e+02
1.000009e+02
1.000007e+02
1.000005e+02
1.000003e+02
1.000002e+02
1.000000e+02
9.999982e+01
9.999965e+01
9.999948e+01
9.999930e+01
9.999913e+01
9.999896e+01
9.999878e+01
9.999861e+01
9.999843e+01
9.999826e+01
9.999809e+01
9.999791e+01
9.999774e+01
9.999757e+01
9.999739e+01
9.999722e+01
9.999705e+01
9.999687e+01
9.999670e+01
9.999652e+01
9.999635e+01
9.999618e+01
9.999600e+01
9.999583e+01
9.999566e+01
9.999548e+01
9.999531e+01
9.999514e+01
9.999496e+01
9.999479e+01
9.999461e+01
9.999444e+01
9.999427e+01
9.999409e+01
9.999392e+01
9.999375e+01
9.999357e+01
9.999340e+01
9.999323e+01
9.999305e+01
9.999288e+01
9.999270e+01
9.999253e+01
9.999236e+01
9.999218e+01
1.000009e+02
1.000007e+02
1.000006e+02
1.000004e+02
1.000002e+02
1.000001e+02
9.999988e+01
9.999971e+01
9.999953e+01
9.999936e+01
9.999919e+01
9.999901e+01
9.999884e+01
9.999867e+01
9.999849e+01
9.999832e+01
9.999814e+01
9.999797e+01
9.999780e+01
9.999762e+01
9.999745e+01
9.999728e+01
9.999710e+01
9.999693e+01
9.999676e+01
9.999658e+01
9.999641e+01
9.999623e+01
9.999606e+01
9.999589e+01
9.999571e+01
9.999554e+01
9.999537e+01
9.999519e+01
9.999502e+01
9.999485e+01
9.999467e+01
9.999450e+01
9.999432e+01
9.999415e+01
9.999398e+01
9.999380e+01
9.999363e+01
9.999346e+01
9.999328e+01
9.999311e+01
9.999294e+01
9.999276e+01
9.999259e+01
9.999241e+01
9.999224e+01
9.999207e+01
9.999189e+01
9.999172e+01
9.999155e+01
9.999137e+01
9.999120e+01
9.999994e+01
9.999976e+01
9.999959e+01
9.999942e+01
9.999924e+01
9.999907e+01
9.999890e+01
9.999872e+01
9.999855e+01
9.999838e+01
9.999820e+01
9.999803e+01
9.999785e+01
9.999768e+01
9.999751e+01
9.999733e+01
9.999716e+01
9.999699e+01
9.999681e+01
9.999664e+01
9.999647e+01
9.999629e+01
9.999612e+01
9.999594e+01
9.999577e+01
9.999560e+01
9.999542e+01
9.999525e+01
9.999508e+01
9.999490e+01
9.999473e+01
9.999456e+01
9.999438e+01
9.999421e+01
9.999403e+01
9.999386e+01
9.999369e+01
9.999351e+01
9.999334e+01
9.999317e+01
9.999299e+01
9.999282e+01
9.999264e+01
9.999247e+01
9.999230e+01
9.999212e+01
9.999195e+01
9.999178e+01
9.999160e+01
9.999143e+01
9.999126e+01
9.999108e+01
9.999091e+01
9.999073e+01
9.999056e+01
9.999039e+01
9.999021e+01
9.999895e+01
9.999878e+01
9.999861e+01
9.999843e+01
9.999826e+01
9.999809e+01
9.999791e+01
9.999774e+01
9.999756e+01
9.999739e+01
9.999722e+01
9.999704e+01
9.999687e+01
9.999670e+01
9.999652e+01
9.999635e+01
9.999617e+01
9.999600e+01
9.999583e+01
9.999565e+01
9.999548e+01
9.999531e+01
9.999513e+01
9.999496e+01
9.999479e+01
9.999461e+01
9.999444e+01
9.999426e+01
9.999409e+01
9.999392e+01
9.999374e+01
9.999357e+01
9.999340e+01
9.999322e+01
9.999305e+01
9.999288e+01
9.999270e+01
9.999253e+01
9.999235e+01
9.999218e+01
9.999201e+01
9.999183e+01
9.999166e+01
9.999149e+01
9.999131e+01
9.999114e+01
9.999097e+01
9.999079e+01
9.999062e+01
9.999044e+01
9.999027e+01
9.999010e+01
9.998992e+01
9.998975e+01
9.998958e+01
9.998940e+01
9.998923e+01
9.999797e+01
9.999779e+01
9.999762e+01
9.999745e+01
9.999727e+01
9.999710e+01
9.999693e+01
9.999675e+01
9.999658e+01
9.999641e+01
9.999623e+01
9.999606e+01
9.999588e+01
9.999571e+01
9.999554e+01
9.999536e+01
9.999519e+01
9.999502e+01
9.999484e+01
9.999467e+01
9.999450e+01
9.999432e+01
9.999415e+01
9.999397e+01
9.999380e+01
9.999363e+01
9.999345e+01
9.999328e+01
9.999311e+01
9.999293e+01
9.999276e+01
9.999259e+01
9.999241e+01
9.999224e+01
9.999206e+01
9.999189e+01
9.999172e+01
9.999154e+01
9.999137e+01
9.999120e+01
9.999102e+01
9.999085e+01
9.999068e+01
9.999050e+01
9.999033e+01
9.999015e+01
9.998998e+01
9.998981e+01
9.998963e+01
9.998946e+01
9.998929e+01
9.998911e+01
9.998894e+01
9.998877e+01
9.998859e+01
9.998842e+01
9.998824e+01
9.999698e+01
9.999681e+01
9.999664e+01
9.999646e+01
9.999629e+01
9.999612e+01
9.999594e+01
9.999577e+01
9.999559e+01
9.999542e+01
9.999525e+01
9.999507e+01
9.999490e+01
9.999473e+01
9.999455e+01
9.999438e+01
9.999421e+01
9.999403e+01
9.999386e+01
9.999368e+01
9.999351e+01
9.999334e+01
9.999316e+01
9.999299e+01
9.999282e+01
9.999264e+01
9.999247e+01
9.999230e+01
9.999212e+01
9.999195e+01
9.999177e+01
9.999160e+01
9.999143e+01
9.999125e+01
9.999108e+01
9.999091e+01
9.999073e+01
9.999056e+01
9.999039e+01
9.999021e+01
9.999004e+01
9.998986e+01
9.998969e+01
9.998952e+01
9.998934e+01
9.998917e+01
9.998900e+01
9.998882e+01
9.998865e+01
9.998847e+01
9.998830e+01
9.998813e+01
9.998795e+01
9.998778e+01
9.998761e+01
9.998743e+01
9.998726e+01
9.999600e+01
9.999583e+01
9.999565e+01
9.999548e+01
9.999530e+01
9.999513e+01
9.999496e+01
9.999478e+01
9.999461e+01
9.999444e+01
9.999426e+01
9.999409e+01
9.999392e+01
9.999374e+01
9.999357e+01
9.999339e+01
9.999322e+01
9.999305e+01
9.999287e+01
9.999270e+01
9.999253e+01
9.999235e+01
9.999218e+01
9.999200e+01
9.999183e+01
9.999166e+01
9.999148e+01
9.999131e+01
9.999114e+01
9.999096e+01
9.999079e+01
9.999062e+01
9.999044e+01
9.999027e+01
9.999009e+01
9.998992e+01
9.998975e+01
9.998957e+01
9.998940e+01
9.998923e+01
9.998905e+01
9.998888e+01
9.998871e+01
9.998853e+01
9.998836e+01
9.998818e+01
9.998801e+01
9.998784e+01
9.998766e+01
9.998749e+01
9.998732e+01
9.998714e+01
9.998697e+01
9.998680e+01
9.998662e+01
9.998645e+01
9.998627e+01
9.999501e+01
9.999484e+01
9.999467e+01
9.999449e+01
9.999432e+01
9.999415e+01
9.999397e+01
9.999380e+01
9.999362e+01
9.999345e+01
9.999328e+01
9.999310e+01
9.999293e+01
9.999276e+01
9.999258e+01
9.999241e+01
9.999224e+01
9.999206e+01
9.999189e+01
9.999171e+01
9.999154e+01
9.999137e+01
9.999119e+01
9.999102e+01
9.999085e+01
9.999067e+01
9.999050e+01
9.999033e+01
9.999015e+01
9.998998e+01
9.998980e+01
9.998963e+01
9.998946e+01
9.998928e+01
9.998911e+01
9.998894e+01
9.998876e+01
9.998859e+01
9.998842e+01
9.998824e+01
9.998807e+01
9.998789e+01
9.998772e+01
9.998755e+01
9.998737e+01
9.998720e+01
9.998703e+01
9.998685e+01
9.998668e+01
9.998651e+01
9.998633e+01
9.998616e+01
9.998598e+01
9.998581e+01
9.998564e+01
9.998546e+01
9.998529e+01
9.999403e+01
9.999386e+01
9.999368e+01
9.999351e+01
9.999333e+01
9.999316e+01
9.999299e+01
9.999281e+01
9.999264e+01
9.999247e+01
9.999229e+01
9.999212e+01
9.999195e+01
9.999177e+01
9.999160e+01
9.999142e+01
9.999125e+01
9.999108e+01
9.999090e+01
9.999073e+01
9.999056e+01
9.999038e+01
9.999021e+01
9.999004e+01
9.998986e+01
9.998969e+01
9.998951e+01
9.998934e+01
9.998917e+01
9.998899e+01
9.998882e+01
9.998865e+01
9.998847e+01
9.998830e+01
9.998813e+01
9.998795e+01
9.998778e+01
9.998760e+01
9.998743e+01
9.998726e+01
9.998708e+01
9.998691e+01
9.998674e+01
9.998656e+01
9.998639e+01
9.998622e+01
9.998604e+01
9.998587e+01
9.998569e+01
9.998552e+01
9.998535e+01
9.998517e+01
9.998500e+01
9.998483e+01
9.998465e+01
9.998448e+01
9.998430e+01
9.999304e+01
9.999287e+01
9.999270e+01
9.999252e+01
9.999235e+01
9.999218e+01
9.999200e+01
9.999183e+01
9.999166e+01
9.999148e+01
9.999131e+01
9.999113e+01
9.999096e+01
9.999079e+01
9.999061e+01
9.999044e+01
9.999027e+01
9.999009e+01
9.998992e+01
9.998975e+01
9.998957e+01
9.998940e+01
9.998922e+01
9.998905e+01
9.998888e+01
9.998870e+01
9.998853e+01
9.998836e+01
9.998818e+01
9.998801e+01
9.998784e+01
9.998766e+01
9.998749e+01
9.998731e+01
9.998714e+01
9.998697e+01
9.998679e+01
9.998662e+01
9.998645e+01
9.998627e+01
9.998610e+01
9.998592e+01
9.998575e+01
9.998558e+01
9.998540e+01
9.998523e+01
9.998506e+01
9.998488e+01
9.998471e+01
9.998454e+01
9.998436e+01
9.998419e+01
9.998401e+01
9.998384e+01
9.998367e+01
9.998349e+01
9.998332e+01
9.999206e+01
9.999189e+01
9.999171e+01
9.999154e+01
9.999137e+01
9.999119e+01
9.999102e+01
9.999084e+01
9.999067e+01
9.999050e+01
9.999032e+01
9.999015e+01
9.998998e+01
9.998980e+01
9.998963e+01
9.998945e+01
9.998928e+01
9.998911e+01
9.998893e+01
9.998876e+01
9.998859e+01
9.998841e+01
9.998824e+01
9.998807e+01
9.998789e+01
9.998772e+01
9.998754e+01
9.998737e+01
9.998720e+01
9.998702e+01
9.998685e+01
9.998668e+01
9.998650e+01
9.998633e+01
9.998616e+01
9.998598e+01
9.998581e+01
9.998563e+01
9.998546e+01
9.998529e+01
9.998511e+01
9.998494e+01
9.998477e+01
9.998459e+01
9.998442e+01
9.998425e+01
9.998407e+01
9.998390e+01
9.998372e+01
9.998355e+01
9.998338e+01
9.998320e+01
9.998303e+01
9.998286e+01
9.998268e+01
9.998251e+01
9.998234e+01
9.999107e+01
9.999090e+01
9.999073e+01
9.999055e+01
9.999038e+01
9.999021e+01
9.999003e+01
9.998986e+01
9.998969e+01
9.998951e+01
9.998934e+01
9.998916e+01
9.998899e+01
9.998882e+01
9.998864e+01
9.998847e+01
9.998830e+01
9.998812e+01
9.998795e+01
9.998778e+01
9.998760e+01
9.998743e+01
9.998725e+01
9.998708e+01
9.998691e+01
9.998673e+01
9.998656e+01
9.998639e+01
9.998621e+01
9.998604e+01
9.998587e+01
9.998569e+01
9.998552e+01
9.998534e+01
9.998517e+01
9.998500e+01
9.998482e+01
9.998465e+01
9.998448e+01
9.998430e+01
9.998413e+01
9.998396e+01
9.998378e+01
9.998361e+01
9.998343e+01
9.998326e+01
9.998309e+01
9.998291e+01
9.998274e+01
9.998257e+01
9.998239e+01
9.998222e+01
9.998205e+01
9.998187e+01
9.998170e+01
9.998152e+01
9.998135e+01
9.999009e+01
9.998992e+01
9.998974e+01
9.998957e+01
9.998940e+01
9.998922e+01
9.998905e+01
9.998887e+01
9.998870e+01
9.998853e+01
9.998835e+01
9.998818e+01
9.998801e+01
9.998783e+01
9.998766e+01
9.998749e+01
9.998731e+01
9.998714e+01
9.998696e+01
9.998679e+01
9.998662e+01
9.998644e+01
9.998627e+01
9.998610e+01
9.998592e+01
9.998575e+01
9.998558e+01
9.998540e+01
9.998523e+01
9.998505e+01
9.998488e+01
9.998471e+01
9.998453e+01
9.998436e+01
9.998419e+01
9.998401e+01
9.998384e+01
9.998367e+01
9.998349e+01
9.998332e+01
9.998314e+01
9.998297e+01
9.998280e+01
9.998262e+01
9.998245e+01
9.998228e+01
9.998210e+01
9.998193e+01
9.998175e+01
9.998158e+01
9.998141e+01
9.998123e+01
9.998106e+01
9.998089e+01
9.998071e+01
9.998054e+01
9.998037e+01
9.998911e+01
9.998893e+01
9.998876e+01
9.998858e+01
9.998841e+01
9.998824e+01
9.998806e+01
9.998789e+01
9.998772e+01
9.998754e+01
9.998737e+01
9.998720e+01
9.998702e+01
9.998685e+01
9.998667e+01
9.998650e+01
9.998633e+01
9.998615e+01
9.998598e+01
9.998581e+01
9.998563e+01
9.998546e+01
9.998528e+01
9.998511e+01
9.998494e+01
9.998476e+01
9.998459e+01
9.998442e+01
9.998424e+01
9.998407e+01
9.998390e+01
9.998372e+01
9.998355e+01
9.998337e+01
9.998320e+01
9.998303e+01
9.998285e+01
9.998268e+01
9.998251e+01
9.998233e+01
9.998216e+01
9.998199e+01
9.998181e+01
9.998164e+01
9.998146e+01
9.998129e+01
9.998112e+01
9.998094e+01
9.998077e+01
9.998060e+01
9.998042e+01
9.998025e+01
9.998008e+01
9.997990e+01
9.997973e+01
9.997955e+01
9.997938e+01
9.998812e+01
9.998795e+01
9.998777e+01
9.998760e+01
9.998743e+01
9.998725e+01
9.998708e+01
9.998690e+01
9.998673e+01
9.998656e+01
9.998638e+01
9.998621e+01
9.998604e+01
9.998586e+01
9.998569e+01
9.998552e+01
9.998534e+01
9.998517e+01
9.998499e+01
9.998482e+01
9.998465e+01
9.998447e+01
9.998430e+01
9.998413e+01
9.998395e+01
9.998378e+01
9.998361e+01
9.998343e+01
9.998326e+01
9.998308e+01
9.998291e+01
9.998274e+01
9.998256e+01
9.998239e+01
9.998222e+01
9.998204e+01
9.998187e+01
9.998170e+01
9.998152e+01
9.998135e+01
9.998117e+01
9.998100e+01
9.998083e+01
9.998065e+01
9.998048e+01
9.998031e+01
9.998013e+01
9.997996e+01
9.997979e+01
9.997961e+01
9.997944e+01
9.997926e+01
9.997909e+01
9.997892e+01
9.997874e+01
9.997857e+01
9.997840e+01
9.998714e+01
9.998696e+01
9.998679e+01
9.998661e+01
9.998644e+01
9.998627e+01
9.998609e+01
9.998592e+01
9.998575e+01
9.998557e+01
9.998540e+01
9.998523e+01
9.998505e+01
9.998488e+01
9.998470e+01
9.998453e+01
9.998436e+01
9.998418e+01
9.998401e+01
9.998384e+01
9.998366e+01
9.998349e+01
9.998332e+01
9.998314e+01
9.998297e+01
9.998279e+01
9.998262e+01
9.998245e+01
9.998227e+01
9.998210e+01
9.998193e+01
9.998175e+01
9.998158e+01
9.998141e+01
9.998123e+01
9.998106e+01
9.998088e+01
9.998071e+01
9.998054e+01
9.998036e+01
9.998019e+01
9.998002e+01
9.997984e+01
9.997967e+01
9.997950e+01
9.997932e+01
9.997915e+01
9.997897e+01
9.997880e+01
9.997863e+01
9.997845e+01
9.997828e+01
9.997811e+01
9.997793e+01
9.997776e+01
9.997758e+01
9.997741e+01
9.998615e+01
9.998598e+01
9.998580e+01
9.998563e+01
9.998546e+01
9.998528e+01
9.998511e+01
9.998494e+01
9.998476e+01
9.998459e+01
9.998441e+01
9.998424e+01
9.998407e+01
9.998389e+01
9.998372e+01
9.998355e+01
9.998337e+01
9.998320e+01
9.998303e+01
9.998285e+01
9.998268e+01
9.998250e+01
9.998233e+01
9.998216e+01
9.998198e+01
9.998181e+01
9.998164e+01
9.998146e+01
9.998129e+01
9.998112e+01
9.998094e+01
9.998077e+01
9.998059e+01
9.998042e+01
9.998025e+01
9.998007e+01
9.997990e+01
9.997973e+01
9.997955e+01
9.997938e+01
9.997920e+01
9.997903e+01
9.997886e+01
9.997868e+01
9.997851e+01
9.997834e+01
9.997816e+01
9.997799e+01
9.997782e+01
9.997764e+01
9.997747e+01
9.997729e+01
9.997712e+01
9.997695e+01
9.997677e+01
9.997660e+01
9.997643e+01
9.998517e+01
9.998499e+01
9.998482e+01
9.998465e+01
9.998447e+01
9.998430e+01
9.998412e+01
9.998395e+01
9.998378e+01
9.998360e+01
9.998343e+01
9.998326e+01
9.998308e+01
9.998291e+01
9.998273e+01
9.998256e+01
9.998239e+01
9.998221e+01
9.998204e+01
9.998187e+01
9.998169e+01
9.998152e+01
9.998135e+01
9.998117e+01
9.998100e+01
9.998082e+01
9.998065e+01
9.998048e+01
9.998030e+01
9.998013e+01
9.997996e+01
9.997978e+01
9.997961e+01
9.997944e+01
9.997926e+01
9.997909e+01
9.997891e+01
9.997874e+01
9.997857e+01
9.997839e+01
9.997822e+01
9.997805e+01
9.997787e+01
9.997770e+01
9.997753e+01
9.997735e+01
9.997718e+01
9.997700e+01
9.997683e+01
9.997666e+01
9.997648e+01
9.997631e+01
9.997614e+01
9.997596e+01
9.997579e+01
9.997562e+01
9.997544e+01
