# vtk DataFile Version 3.4
Image
ASCII
DATASET STRUCTURED_POINTS
DIMENSIONS 57 40 1
ORIGIN 0.000000 0.000000 0.000000
SPACING 1.000000 1.000000 1.000000
POINT_DATA 2280
SCALARS facies float 1
LOOKUP_TABLE default
1.016874e+02
1.016441e+02
1.016008e+02
1.015575e+02
1.015142e+02
1.014709e+02
1.014276e+02
1.013843e+02
1.013410e+02
1.012977e+02
1.012544e+02
1.012111e+02
1.011678e+02
1.011245e+02
1.010812e+02
1.010379e+02
1.009946e+02
1.009513e+02
1.009080e+02
1.008647e+02
1.008214e+02
1.007781e+02
1.007348e+02
1.006915e+02
1.006482e+02
1.006049e+02
1.005616e+02
1.005183e+02
1.004750e+02
1.004317e+02
1.003884e+02
1.003451e+02
1.003018e+02
1.002585e+02
1.002152e+02
1.001719e+02
1.001286e+02
1.000853e+02
1.000420e+02
9.999869e+01
9.995538e+01
9.991208e+01
9.986878e+01
9.982548e+01
9.978218e+01
9.973888e+01
9.969558e+01
9.965228e+01
9.960897e+01
9.956567e+01
9.952237e+01
9.947907e+01
9.943577e+01
9.939247e+01
9.934917e+01
9.930587e+01
9.926256e+01
1.016624e+02
1.016191e+02
1.015758e+02
1.015325e+02
1.014892e+02
1.014459e+02
1.014026e+02
1.013593e+02
1.013160e+02
1.012727e+02
1.012294e+02
1.011861e+02
1.011428e+02
1.010995e+02
1.010562e+02
1.010129e+02
1.009696e+02
1.009263e+02
1.008830e+02
1.008397e+02
1.007964e+02
1.007531e+02
1.007098e+02
1.006665e+02
1.006232e+02
1.005799e+02
1.005366e+02
1.004933e+02
1.004500e+02
1.004067e+02
1.003634e+02
1.003201e+02
1.002768e+02
1.002335e+02
1.001902e+02
1.001469e+02
1.001036e+02
1.000603e+02
1.000170e+02
9.997369e+01
9.993038e+01
9.988708e+01
9.984378e+01
9.980048e+01
9.975718e+01
9.971388e+01
9.967058e+01
9.962728e+01
9.958397e+01
9.954067e+01
9.949737e+01
9.945407e+01
9.941077e+01
9.936747e+01
9.932417e+01
9.928087e+01
9.923756e+01
1.016374e+02
1.015941e+02
1.015508e+02
1.015075e+02
1.014642e+02
1.014209e+02
1.013776e+02
1.013343e+02
1.012910e+02
1.012477e+02
1.012044e+02
1.011611e+02
1.011178e+02
1.010745e+02
1.010312e+02
1.009879e+02
1.009446e+02
1.009013e+02
1.008580e+02
1.008147e+02
1.007714e+02
1.007281e+02
1.006848e+02
1.006415e+02
1.005982e+02
1.005549e+02
1.005116e+02
1.004683e+02
1.004250e+02
1.003817e+02
1.003384e+02
1.002951e+02
1.002518e+02
1.002085e+02
1.001652e+02
1.001219e+02
1.000786e+02
1.000353e+02
9.999199e+01
9.994869e+01
9.990538e+01
9.986208e+01
9.981878e+01
9.977548e+01
9.973218e+01
9.968888e+01
9.964558e+01
9.960228e+01
9.955897e+01
9.951567e+01
9.947237e+01
9.942907e+01
9.938577e+01
9.934247e+01
9.929917e+01
9.925587e+01
9.921256e+01
1.016124e+02
1.015691e+02
1.015258e+02
1.014825e+02
1.014392e+02
1.013959e+02
1.013526e+02
1.013093e+02
1.012660e+02
1.012227e+02
1.011794e+02
1.011361e+02
1.010928e+02
1.010495e+02
1.010062e+02
1.009629e+02
1.009196e+02
1.008763e+02
1.008330e+02
1.007897e+02
1.007464e+02
1.007031e+02
1.006598e+02
1.006165e+02
1.005732e+02
1.005299e+02
1.004866e+02
1.004433e+02
1.004000e+02
1.003567e+02
1.003134e+02
1.002701e+02
1.002268e+02
1.001835e+02
1.001402e+02
1.000969e+02
1.000536e+02
1.000103e+02
9.996699e+01
9.992369e+01
9.988038e+01
9.983708e+01
9.979378e+01
9.975048e+01
9.970718e+01
9.966388e+01
9.962058e+01
9.957728e+01
9.953397e+01
9.949067e+01
9.944737e+01
9.940407e+01
9.936077e+01
9.931747e+01
9.927417e+01
9.923087e+01
9.918756e+01
1.015874e+02
1.015441e+02
1.015008e+02
1.014575e+02
1.014142e+02
1.013709e+02
1.013276e+02
1.012843e+02
1.012410e+02
1.011977e+02
1.011544e+02
1.011111e+02
1.010678e+02
1.010245e+02
1.009812e+02
1.009379e+02
1.008946e+02
1.008513e+02
1.008080e+02
1.007647e+02
1.007214e+02
1.006781e+02
1.006348e+02
1.005915e+02
1.005482e+02
1.005049e+02
1.004616e+02
1.004183e+02
1.003750e+02
1.003317e+02
1.002884e+02
1.002451e+02
1.002018e+02
1.001585e+02
1.001152e+02
1.000719e+02
1.000286e+02
9.998529e+01
9.994199e+01
9.989869e+01
9.985538e+01
9.981208e+01
9.976878e+01
9.972548e+01
9.968218e+01
9.963888e+01
9.959558e+01
9.955228e+01
9.950897e+01
9.946567e+01
9.942237e+01
9.937907e+01
9.933577e+01
9.929247e+01
9.924917e+01
9.920587e+01
9.916256e+01
1.015624e+02
1.015191e+02
1.014758e+02
1.014325e+02
1.013892e+02
1.013459e+02
1.013026e+02
1.012593e+02
1.012160e+02
1.011727e+02
1.011294e+02
1.010861e+02
1.010428e+02
1.009995e+02
1.009562e+02
1.009129e+02
1.008696e+02
1.008263e+02
1.007830e+02
1.007397e+02
1.006964e+02
1.006531e+02
1.006098e+02
1.005665e+02
1.005232e+02
1.004799e+02
1.004366e+02
1.003933e+02
1.003500e+02
1.003067e+02
1.002634e+02
1.002201e+02
1.001768e+02
1.001335e+02
1.000902e+02
1.000469e+02
1.000036e+02
9.996029e+01
9.991699e+01
9.987369e+01
9.983038e+01
9.978708e+01
9.974378e+01
9.970048e+01
9.965718e+01
9.961388e+01
9.957058e+01
9.952728e+01
9.948397e+01
9.944067e+01
9.939737e+01
9.935407e+01
9.931077e+01
9.926747e+01
9.922417e+01
9.918087e+01
9.913756e+01
1.015374e+02
1.014941e+02
1.014508e+02
1.014075e+02
1.013642e+02
1.013209e+02
1.012776e+02
1.012343e+02
1.011910e+02
1.011477e+02
1.011044e+02
1.010611e+02
1.010178e+02
1.009745e+02
1.009312e+02
1.008879e+02
1.008446e+02
1.008013e+02
1.007580e+02
1.007147e+02
1.006714e+02
1.006281e+02
1.005848e+02
1.005415e+02
1.004982e+02
1.004549e+02
1.004116e+02
1.003683e+02
1.003250e+02
1.002817e+02
1.002384e+02
1.001951e+02
1.001518e+02
1.001085e+02
1.000652e+02
1.000219e+02
9.997859e+01
9.993529e+01
9.989199e+01
9.984869e+01
9.980538e+01
9.976208e+01
9.971878e+01
9.967548e+01
9.963218e+01
9.958888e+01
9.954558e+01
9.950228e+01
9.945897e+01
9.941567e+01
9.937237e+01
9.932907e+01
9.928577e+01
9.924247e+01
9.919917e+01
9.915587e+01
9.911256e+01
1.015124e+02
1.014691e+02
1.014258e+02
1.013825e+02
1.013392e+02
1.012959e+02
1.012526e+02
1.012093e+02
1.011660e+02
1.011227e+02
1.010794e+02
1.010361e+02
1.009928e+02
1.009495e+02
1.009062e+02
1.008629e+02
1.008196e+02
1.007763e+02
1.007330e+02
1.006897e+02
1.006464e+02
1.006031e+02
1.005598e+02
1.005165e+02
1.004732e+02
1.004299e+02
1.003866e+02
1.003433e+02
1.003000e+02
1.002567e+02
1.002134e+02
1.001701e+02
1.001268e+02
1.000835e+02
1.000402e+02
9.999689e+01
9.995359e+01
9.991029e+01
9.986699e+01
9.982369e+01
9.978038e+01
9.973708e+01
9.969378e+01
9.965048e+01
9.960718e+01
9.956388e+01
9.952058e+01
9.947728e+01
9.943397e+01
9.939067e+01
9.934737e+01
9.930407e+01
9.926077e+01
9.921747e+01
9.917417e+01
9.913087e+01
9.908756e+01
1.014874e+02
1.014441e+02
1.014008e+02
1.013575e+02
1.013142e+02
1.012709e+02
1.012276e+02
1.011843e+02
1.011410e+02
1.010977e+02
1.010544e+02
1.010111e+02
1.009678e+02
1.009245e+02
1.008812e+02
1.008379e+02
1.007946e+02
1.007513e+02
1.007080e+02
1.006647e+02
1.006214e+02
1.005781e+02
1.005348e+02
1.004915e+02
1.004482e+02
1.004049e+02
1.003616e+02
1.003183e+02
1.002750e+02
1.002317e+02
1.001884e+02
1.001451e+02
1.001018e+02
1.000585e+02
1.000152e+02
9.997189e+01
9.992859e+01
9.988529e+01
9.984199e+01
9.979869e+01
9.975538e+01
9.971208e+01
9.966878e+01
9.962548e+01
9.958218e+01
9.953888e+01
9.949558e+01
9.945228e+01
9.940897e+01
9.936567e+01
9.932237e+01
9.927907e+01
9.923577e+01
9.919247e+01
9.914917e+01
9.910587e+01
9.906256e+01
1.014624e+02
1.014191e+02
1.013758e+02
1.013325e+02
1.012892e+02
1.012459e+02
1.012026e+02
1.011593e+02
1.011160e+02
1.010727e+02
1.010294e+02
1.009861e+02
1.009428e+02
1.008995e+02
1.008562e+02
1.008129e+02
1.007696e+02
1.007263e+02
1.006830e+02
1.006397e+02
1.005964e+02
1.005531e+02
1.005098e+02
1.004665e+02
1.004232e+02
1.003799e+02
1.003366e+02
1.002933e+02
1.002500e+02
1.002067e+02
1.001634e+02
1.001201e+02
1.000768e+02
1.000335e+02
9.999019e+01
9.994689e+01
9.990359e+01
9.986029e+01
9.981699e+01
9.977369e+01
9.973038e+01
9.968708e+01
9.964378e+01
9.960048e+01
9.955718e+01
9.951388e+01
9.947058e+01
9.942728e+01
9.938397e+01
9.934067e+01
9.929737e+01
9.925407e+01
9.921077e+01
9.916747e+01
9.912417e+01
9.908087e+01
9.903756e+01
1.014374e+02
1.013941e+02
1.013508e+02
1.013075e+02
1.012642e+02
1.012209e+02
1.011776e+02
1.011343e+02
1.010910e+02
1.010477e+02
1.010044e+02
1.009611e+02
1.009178e+02
1.008745e+02
1.008312e+02
1.007879e+02
1.007446e+02
1.007013e+02
1.006580e+02
1.006147e+02
1.005714e+02
1.005281e+02
1.004848e+02
1.004415e+02
1.003982e+02
1.003549e+02
1.003116e+02
1.002683e+02
1.002250e+02
1.001817e+02
1.001384e+02
1.000951e+02
1.000518e+02
1.000085e+02
9.996519e+01
9.992189e+01
9.987859e+01
9.983529e+01
9.979199e+01
9.974869e+01
9.970538e+01
9.966208e+01
9.961878e+01
9.957548e+01
9.953218e+01
9.948888e+01
9.944558e+01
9.940228e+01
9.935897e+01
9.931567e+01
9.927237e+01
9.922907e+01
9.918577e+01
9.914247e+01
9.909917e+01
9.905587e+01
9.901256e+01
1.014124e+02
1.013691e+02
1.013258e+02
1.012825e+02
1.012392e+02
1.011959e+02
1.011526e+02
1.011093e+02
1.010660e+02
1.010227e+02
1.009794e+02
1.009361e+02
1.008928e+02
1.008495e+02
1.008062e+02
1.007629e+02
1.007196e+02
1.006763e+02
1.006330e+02
1.005897e+02
1.005464e+02
1.005031e+02
1.004598e+02
1.004165e+02
1.003732e+02
1.003299e+02
1.002866e+02
1.002433e+02
1.002000e+02
1.001567e+02
1.001134e+02
1.000701e+02
1.000268e+02
9.998349e+01
9.994019e+01
9.989689e+01
9.985359e+01
9.981029e+01
9.976699e+01
9.972369e+01
9.968038e+01
9.963708e+01
9.959378e+01
9.955048e+01
9.950718e+01
9.946388e+01
9.942058e+01
9.937728e+01
9.933397e+01
9.929067e+01
9.924737e+01
9.920407e+01
9.916077e+01
9.911747e+01
9.907417e+01
9.903087e+01
9.898756e+01
1.013874e+02
1.013441e+02
1.013008e+02
1.012575e+02
1.012142e+02
1.011709e+02
1.011276e+02
1.010843e+02
1.010410e+02
1.009977e+02
1.009544e+02
1.009111e+02
1.008678e+02
1.008245e+02
1.007812e+02
1.007379e+02
1.006946e+02
1.006513e+02
1.006080e+02
1.005647e+02
1.005214e+02
1.004781e+02
1.004348e+02
1.003915e+02
1.003482e+02
1.003049e+02
1.002616e+02
1.002183e+02
1.001750e+02
1.001317e+02
1.000884e+02
1.000451e+02
1.000018e+02
9.995849e+01
9.991519e+01
9.987189e+01
9.982859e+01
9.978529e+01
9.974199e+01
9.969869e+01
9.965538e+01
9.961208e+01
9.956878e+01
9.952548e+01
9.948218e+01
9.943888e+01
9.939558e+01
9.935228e+01
9.930897e+01
9.926567e+01
9.922237e+01
9.917907e+01
9.913577e+01
9.909247e+01
9.904917e+01
9.900587e+01
9.896256e+01
1.013624e+02
1.013191e+02
1.012758e+02
1.012325e+02
1.011892e+02
1.011459e+02
1.011026e+02
1.010593e+02
1.010160e+02
1.009727e+02
1.009294e+02
1.008861e+02
1.008428e+02
1.007995e+02
1.007562e+02
1.007129e+02
1.006696e+02
1.006263e+02
1.005830e+02
1.005397e+02
1.004964e+02
1.004531e+02
1.004098e+02
1.003665e+02
1.003232e+02
1.002799e+02
1.002366e+02
1.001933e+02
1.001500e+02
1.001067e+02
1.000634e+02
1.000201e+02
9.997679e+01
9.993349e+01
9.989019e+01
9.984689e+01
9.980359e+01
9.976029e+01
9.971699e+01
9.967369e+01
9.963038e+01
9.958708e+01
9.954378e+01
9.950048e+01
9.945718e+01
9.941388e+01
9.937058e+01
9.932728e+01
9.928397e+01
9.924067e+01
9.919737e+01
9.915407e+01
9.911077e+01
9.906747e+01
9.902417e+01
9.898087e+01
9.893756e+01
1.013374e+02
1.012941e+02
1.012508e+02
1.012075e+02
1.011642e+02
1.011209e+02
1.010776e+02
1.010343e+02
1.009910e+02
1.009477e+02
1.009044e+02
1.008611e+02
1.008178e+02
1.007745e+02
1.007312e+02
1.006879e+02
1.006446e+02
1.006013e+02
1.005580e+02
1.005147e+02
1.004714e+02
1.004281e+02
1.003848e+02
1.003415e+02
1.002982e+02
1.002549e+02
1.002116e+02
1.001683e+02
1.001250e+02
1.000817e+02
1.000384e+02
9.999510e+01
9.995179e+01
9.990849e+01
9.986519e+01
9.982189e+01
9.977859e+01
9.973529e+01
9.969199e+01
9.964869e+01
9.960538e+01
9.956208e+01
9.951878e+01
9.947548e+01
9.943218e+01
9.938888e+01
9.934558e+01
9.930228e+01
9.925897e+01
9.921567e+01
9.917237e+01
9.912907e+01
9.908577e+01
9.904247e+01
9.899917e+01
9.895587e+01
9.891256e+01
1.013124e+02
1.012691e+02
1.012258e+02
1.011825e+02
1.011392e+02
1.010959e+02
1.010526e+02
1.010093e+02
1.009660e+02
1.009227e+02
1.008794e+02
1.008361e+02
1.007928e+02
1.007495e+02
1.007062e+02
1.006629e+02
1.006196e+02
1.005763e+02
1.005330e+02
1.004897e+02
1.004464e+02
1.004031e+02
1.003598e+02
1.003165e+02
1.002732e+02
1.002299e+02
1.001866e+02
1.001433e+02
1.001000e+02
1.000567e+02
1.000134e+02
9.997010e+01
9.992679e+01
9.988349e+01
9.984019e+01
9.979689e+01
9.975359e+01
9.971029e+01
9.966699e+01
9.962369e+01
9.958038e+01
9.953708e+01
9.949378e+01
9.945048e+01
9.940718e+01
9.936388e+01
9.932058e+01
9.927728e+01
9.923397e+01
9.919067e+01
9.914737e+01
9.910407e+01
9.906077e+01
9.901747e+01
9.897417e+01
9.893087e+01
9.888756e+01
1.012874e+02
1.012441e+02
1.012008e+02
1.011575e+02
1.011142e+02
1.010709e+02
1.010276e+02
1.009843e+02
1.009410e+02
1.008977e+02
1.008544e+02
1.008111e+02
1.007678e+02
1.007245e+02
1.006812e+02
1.006379e+02
1.005946e+02
1.005513e+02
1.005080e+02
1.004647e+02
1.004214e+02
1.003781e+02
1.003348e+02
1.002915e+02
1.002482e+02
1.002049e+02
1.001616e+02
1.001183e+02
1.000750e+02
1.000317e+02
9.998840e+01
9.994510e+01
9.990179e+01
9.985849e+01
9.981519e+01
9.977189e+01
9.972859e+01
9.968529e+01
9.964199e+01
9.959869e+01
9.955538e+01
9.951208e+01
9.946878e+01
9.942548e+01
9.938218e+01
9.933888e+01
9.929558e+01
9.925228e+01
9.920897e+01
9.916567e+01
9.912237e+01
9.907907e+01
9.903577e+01
9.899247e+01
9.894917e+01
9.890587e+01
9.886256e+01
1.012624e+02
1.012191e+02
1.011758e+02
1.011325e+02
1.010892e+02
1.010459e+02
1.010026e+02
1.009593e+02
1.009160e+02
1.008727e+02
1.008294e+02
1.007861e+02
1.007428e+02
1.006995e+02
1.006562e+02
1.006129e+02
1.005696e+02
1.005263e+02
1.004830e+02
1.004397e+02
1.003964e+02
1.003531e+02
1.003098e+02
1.002665e+02
1.002232e+02
1.001799e+02
1.001366e+02
1.000933e+02
1.000500e+02
1.000067e+02
9.996340e+01
9.992010e+01
9.987679e+01
9.983349e+01
9.979019e+01
9.974689e+01
9.970359e+01
9.966029e+01
9.961699e+01
9.957369e+01
9.953038e+01
9.948708e+01
9.944378e+01
9.940048e+01
9.935718e+01
9.931388e+01
9.927058e+01
9.922728e+01
9.918397e+01
9.914067e+01
9.909737e+01
9.905407e+01
9.901077e+01
9.896747e+01
9.892417e+01
9.888087e+01
9.883756e+01
1.012374e+02
1.011941e+02
1.011508e+02
1.011075e+02
1.010642e+02
1.010209e+02
1.009776e+02
1.009343e+02
1.008910e+02
1.008477e+02
1.008044e+02
1.007611e+02
1.007178e+02
1.006745e+02
1.006312e+02
1.005879e+02
1.005446e+02
1.005013e+02
1.004580e+02
1.004147e+02
1.003714e+02
1.003281e+02
1.002848e+02
1.002415e+02
1.001982e+02
1.001549e+02
1.001116e+02
1.000683e+02
1.000250e+02
9.998170e+01
9.993840e+01
9.989510e+01
9.985179e+01
9.980849e+01
9.976519e+01
9.972189e+01
9.967859e+01
9.963529e+01
9.959199e+01
9.954869e+01
9.950538e+01
9.946208e+01
9.941878e+01
9.937548e+01
9.933218e+01
9.928888e+01
9.924558e+01
9.920228e+01
9.915897e+01
9.911567e+01
9.907237e+01
9.902907e+01
9.898577e+01
9.894247e+01
9.889917e+01
9.885587e+01
9.881256e+01
1.012124e+02
1.011691e+02
1.011258e+02
1.010825e+02
1.010392e+02
1.009959e+02
1.009526e+02
1.009093e+02
1.008660e+02
1.008227e+02
1.007794e+02
1.007361e+02
1.006928e+02
1.006495e+02
1.006062e+02
1.005629e+02
1.005196e+02
1.004763e+02
1.004330e+02
1.003897e+02
1.003464e+02
1.003031e+02
1.002598e+02
1.002165e+02
1.001732e+02
1.001299e+02
1.000866e+02
1.000433e+02
1.000000e+02
9.995670e+01
9.991340e+01
9.987010e+01
9.982679e+01
9.978349e+01
9.974019e+01
9.969689e+01
9.965359e+01
9.961029e+01
9.956699e+01
9.952369e+01
9.948038e+01
9.943708e+01
9.939378e+01
9.935048e+01
9.930718e+01
9.926388e+01
9.922058e+01
9.917728e+01
9.913397e+01
9.909067e+01
9.904737e+01
9.900407e+01
9.896077e+01
9.891747e+01
9.887417e+01
9.883087e+01
9.878756e+01
1.011874e+02
1.011441e+02
1.011008e+02
1.010575e+02
1.010142e+02
1.009709e+02
1.009276e+02
1.008843e+02
1.008410e+02
1.007977e+02
1.007544e+02
1.007111e+02
1.006678e+02
1.006245e+02
1.005812e+02
1.005379e+02
1.004946e+02
1.004513e+02
1.004080e+02
1.003647e+02
1.003214e+02
1.002781e+02
1.002348e+02
1.001915e+02
1.001482e+02
1.001049e+02
1.000616e+02
1.000183e+02
9.997500e+01
9.993170e+01
9.988840e+01
9.984510e+01
9.980179e+01
9.975849e+01
9.971519e+01
9.967189e+01
9.962859e+01
9.958529e+01
9.954199e+01
9.949869e+01
9.945538e+01
9.941208e+01
9.936878e+01
9.932548e+01
9.928218e+01
9.923888e+01
9.919558e+01
9.915228e+01
9.910897e+01
9.906567e+01
9.902237e+01
9.897907e+01
9.893577e+01
9.889247e+01
9.884917e+01
9.880587e+01
9.876256e+01
1.011624e+02
1.011191e+02
1.010758e+02
1.010325e+02
1.009892e+02
1.009459e+02
1.009026e+02
1.008593e+02
1.008160e+02
1.007727e+02
1.007294e+02
1.006861e+02
1.006428e+02
1.005995e+02
1.005562e+02
1.005129e+02
1.004696e+02
1.004263e+02
1.003830e+02
1.003397e+02
1.002964e+02
1.002531e+02
1.002098e+02
1.001665e+02
1.001232e+02
1.000799e+02
1.000366e+02
9.999330e+01
9.995000e+01
9.990670e+01
9.986340e+01
9.982010e+01
9.977679e+01
9.973349e+01
9.969019e+01
9.964689e+01
9.960359e+01
9.956029e+01
9.951699e+01
9.947369e+01
9.943038e+01
9.938708e+01
9.934378e+01
9.930048e+01
9.925718e+01
9.921388e+01
9.917058e+01
9.912728e+01
9.908397e+01
9.904067e+01
9.899737e+01
9.895407e+01
9.891077e+01
9.886747e+01
9.882417e+01
9.878087e+01
9.873756e+01
1.011374e+02
1.010941e+02
1.010508e+02
1.010075e+02
1.009642e+02
1.009209e+02
1.008776e+02
1.008343e+02
1.007910e+02
1.007477e+02
1.007044e+02
1.006611e+02
1.006178e+02
1.005745e+02
1.005312e+02
1.004879e+02
1.004446e+02
1.004013e+02
1.003580e+02
1.003147e+02
1.002714e+02
1.002281e+02
1.001848e+02
1.001415e+02
1.000982e+02
1.000549e+02
1.000116e+02
9.996830e+01
9.992500e+01
9.988170e+01
9.983840e+01
9.979510e+01
9.975179e+01
9.970849e+01
9.966519e+01
9.962189e+01
9.957859e+01
9.953529e+01
9.949199e+01
9.944869e+01
9.940538e+01
9.936208e+01
9.931878e+01
9.927548e+01
9.923218e+01
9.918888e+01
9.914558e+01
9.910228e+01
9.905897e+01
9.901567e+01
9.897237e+01
9.892907e+01
9.888577e+01
9.884247e+01
9.879917e+01
9.875587e+01
9.871256e+01
1.011124e+02
1.010691e+02
1.010258e+02
1.009825e+02
1.009392e+02
1.008959e+02
1.008526e+02
1.008093e+02
1.007660e+02
1.007227e+02
1.006794e+02
1.006361e+02
1.005928e+02
1.005495e+02
1.005062e+02
1.004629e+02
1.004196e+02
1.003763e+02
1.003330e+02
1.002897e+02
1.002464e+02
1.002031e+02
1.001598e+02
1.001165e+02
1.000732e+02
1.000299e+02
9.998660e+01
9.994330e+01
9.990000e+01
9.985670e+01
9.981340e+01
9.977010e+01
9.972679e+01
9.968349e+01
9.964019e+01
9.959689e+01
9.955359e+01
9.951029e+01
9.946699e+01
9.942369e+01
9.938038e+01
9.933708e+01
9.929378e+01
9.925048e+01
9.920718e+01
9.916388e+01
9.912058e+01
9.907728e+01
9.903397e+01
9.899067e+01
9.894737e+01
9.890407e+01
9.886077e+01
9.881747e+01
9.877417e+01
9.873087e+01
9.868756e+01
1.010874e+02
1.010441e+02
1.010008e+02
1.009575e+02
1.009142e+02
1.008709e+02
1.008276e+02
1.007843e+02
1.007410e+02
1.006977e+02
1.006544e+02
1.006111e+02
1.005678e+02
1.005245e+02
1.004812e+02
1.004379e+02
1.003946e+02
1.003513e+02
1.003080e+02
1.002647e+02
1.002214e+02
1.001781e+02
1.001348e+02
1.000915e+02
1.000482e+02
1.000049e+02
9.996160e+01
9.991830e+01
9.987500e+01
9.983170e+01
9.978840e+01
9.974510e+01
9.970179e+01
9.965849e+01
9.961519e+01
9.957189e+01
9.952859e+01
9.948529e+01
9.944199e+01
9.939869e+01
9.935538e+01
9.931208e+01
9.926878e+01
9.922548e+01
9.918218e+01
9.913888e+01
9.909558e+01
9.905228e+01
9.900897e+01
9.896567e+01
9.892237e+01
9.887907e+01
9.883577e+01
9.879247e+01
9.874917e+01
9.870587e+01
9.866256e+01
1.010624e+02
1.010191e+02
1.009758e+02
1.009325e+02
1.008892e+02
1.008459e+02
1.008026e+02
1.007593e+02
1.007160e+02
1.006727e+02
1.006294e+02
1.005861e+02
1.005428e+02
1.004995e+02
1.004562e+02
1.004129e+02
1.003696e+02
1.003263e+02
1.002830e+02
1.002397e+02
1.001964e+02
1.001531e+02
1.001098e+02
1.000665e+02
1.000232e+02
9.997990e+01
9.993660e+01
9.989330e+01
9.985000e+01
9.980670e+01
9.976340e+01
9.972010e+01
9.967679e+01
9.963349e+01
9.959019e+01
9.954689e+01
9.950359e+01
9.946029e+01
9.941699e+01
9.937369e+01
9.933038e+01
9.928708e+01
9.924378e+01
9.920048e+01
9.915718e+01
9.911388e+01
9.907058e+01
9.902728e+01
9.898397e+01
9.894067e+01
9.889737e+01
9.885407e+01
9.881077e+01
9.876747e+01
9.872417e+01
9.868087e+01
9.863756e+01
1.010374e+02
1.009941e+02
1.009508e+02
1.009075e+02
1.008642e+02
1.008209e+02
1.007776e+02
1.007343e+02
1.006910e+02
1.006477e+02
1.006044e+02
1.005611e+02
1.005178e+02
1.004745e+02
1.004312e+02
1.003879e+02
1.003446e+02
1.003013e+02
1.002580e+02
1.002147e+02
1.001714e+02
1.001281e+02
1.000848e+02
1.000415e+02
9.999821e+01
9.995490e+01
9.991160e+01
9.986830e+01
9.982500e+01
9.978170e+01
9.973840e+01
9.969510e+01
9.965179e+01
9.960849e+01
9.956519e+01
9.952189e+01
9.947859e+01
9.943529e+01
9.939199e+01
9.934869e+01
9.930538e+01
9.926208e+01
9.921878e+01
9.917548e+01
9.913218e+01
9.908888e+01
9.904558e+01
9.900228e+01
9.895897e+01
9.891567e+01
9.887237e+01
9.882907e+01
9.878577e+01
9.874247e+01
9.869917e+01
9.865587e+01
9.861256e+01
1.010124e+02
1.009691e+02
1.009258e+02
1.008825e+02
1.008392e+02
1.007959e+02
1.007526e+02
1.007093e+02
1.006660e+02
1.006227e+02
1.005794e+02
1.005361e+02
1.004928e+02
1.004495e+02
1.004062e+02
1.003629e+02
1.003196e+02
1.002763e+02
1.002330e+02
1.001897e+02
1.001464e+02
1.001031e+02
1.000598e+02
1.000165e+02
9.997321e+01
9.992990e+01
9.988660e+01
9.984330e+01
9.980000e+01
9.975670e+01
9.971340e+01
9.967010e+01
9.962679e+01
9.958349e+01
9.954019e+01
9.949689e+01
9.945359e+01
9.941029e+01
9.936699e+01
9.932369e+01
9.928038e+01
9.923708e+01
9.919378e+01
9.915048e+01
9.910718e+01
9.906388e+01
9.902058e+01
9.897728e+01
9.893397e+01
9.889067e+01
9.884737e+01
9.880407e+01
9.876077e+01
9.871747e+01
9.867417e+01
9.863087e+01
9.858756e+01
1.009874e+02
1.009441e+02
1.009008e+02
1.008575e+02
1.008142e+02
1.007709e+02
1.007276e+02
1.006843e+02
1.006410e+02
1.005977e+02
1.005544e+02
1.005111e+02
1.004678e+02
1.004245e+02
1.003812e+02
1.003379e+02
1.002946e+02
1.002513e+02
1.002080e+02
1.001647e+02
1.001214e+02
1.000781e+02
1.000348e+02
9.999151e+01
9.994821e+01
9.990490e+01
9.986160e+01
9.981830e+01
9.977500e+01
9.973170e+01
9.968840e+01
9.964510e+01
9.960179e+01
9.955849e+01
9.951519e+01
9.947189e+01
9.942859e+01
9.938529e+01
9.934199e+01
9.929869e+01
9.925538e+01
9.921208e+01
9.916878e+01
9.912548e+01
9.908218e+01
9.903888e+01
9.899558e+01
9.895228e+01
9.890897e+01
9.886567e+01
9.882237e+01
9.877907e+01
9.873577e+01
9.869247e+01
9.864917e+01
9.860587e+01
9.856256e+01
1.009624e+02
1.009191e+02
1.008758e+02
1.008325e+02
1.007892e+02
1.007459e+02
1.007026e+02
1.006593e+02
1.006160e+02
1.005727e+02
1.005294e+02
1.004861e+02
1.004428e+02
1.003995e+02
1.003562e+02
1.003129e+02
1.002696e+02
1.002263e+02
1.001830e+02
1.001397e+02
1.000964e+02
1.000531e+02
1.000098e+02
9.996651e+01
9.992321e+01
9.987990e+01
9.983660e+01
9.979330e+01
9.975000e+01
9.970670e+01
9.966340e+01
9.962010e+01
9.957679e+01
9.953349e+01
9.949019e+01
9.944689e+01
9.940359e+01
9.936029e+01
9.931699e+01
9.927369e+01
9.923038e+01
9.918708e+01
9.914378e+01
9.910048e+01
9.905718e+01
9.901388e+01
9.897058e+01
9.892728e+01
9.888397e+01
9.884067e+01
9.879737e+01
9.875407e+01
9.871077e+01
9.866747e+01
9.862417e+01
9.858087e+01
9.853756e+01
1.009374e+02
1.008941e+02
1.008508e+02
1.008075e+02
1.007642e+02
1.007209e+02
1.006776e+02
1.006343e+02
1.005910e+02
1.005477e+02
1.005044e+02
1.004611e+02
1.004178e+02
1.003745e+02
1.003312e+02
1.002879e+02
1.002446e+02
1.002013e+02
1.001580e+02
1.001147e+02
1.000714e+02
1.000281e+02
9.998481e+01
9.994151e+01
9.989821e+01
9.985490e+01
9.981160e+01
9.976830e+01
9.972500e+01
9.968170e+01
9.963840e+01
9.959510e+01
9.955179e+01
9.950849e+01
9.946519e+01
9.942189e+01
9.937859e+01
9.933529e+01
9.929199e+01
9.924869e+01
9.920538e+01
9.916208e+01
9.911878e+01
9.907548e+01
9.903218e+01
9.898888e+01
9.894558e+01
9.890228e+01
9.885897e+01
9.881567e+01
9.877237e+01
9.872907e+01
9.868577e+01
9.864247e+01
9.859917e+01
9.855587e+01
9.851256e+01
1.009124e+02
1.008691e+02
1.008258e+02
1.007825e+02
1.007392e+02
1.006959e+02
1.006526e+02
1.006093e+02
1.005660e+02
1.005227e+02
1.004794e+02
1.004361e+02
1.003928e+02
1.003495e+02
1.003062e+02
1.002629e+02
1.002196e+02
1.001763e+02
1.001330e+02
1.000897e+02
1.000464e+02
1.000031e+02
9.995981e+01
9.991651e+01
9.987321e+01
9.982990e+01
9.978660e+01
9.974330e+01
9.970000e+01
9.965670e+01
9.961340e+01
9.957010e+01
9.952679e+01
9.948349e+01
9.944019e+01
9.939689e+01
9.935359e+01
9.931029e+01
9.926699e+01
9.922369e+01
9.918038e+01
9.913708e+01
9.909378e+01
9.905048e+01
9.900718e+01
9.896388e+01
9.892058e+01
9.887728e+01
9.883397e+01
9.879067e+01
9.874737e+01
9.870407e+01
9.866077e+01
9.861747e+01
9.857417e+01
9.853087e+01
9.848756e+01
1.008874e+02
1.008441e+02
1.008008e+02
1.007575e+02
1.007142e+02
1.006709e+02
1.006276e+02
1.005843e+02
1.005410e+02
1.004977e+02
1.004544e+02
1.004111e+02
1.003678e+02
1.003245e+02
1.002812e+02
1.002379e+02
1.001946e+02
1.001513e+02
1.001080e+02
1.000647e+02
1.000214e+02
9.997811e+01
9.993481e+01
9.989151e+01
9.984821e+01
9.980490e+01
9.976160e+01
9.971830e+01
9.967500e+01
9.963170e+01
9.958840e+01
9.954510e+01
9.950179e+01
9.945849e+01
9.941519e+01
9.937189e+01
9.932859e+01
9.928529e+01
9.924199e+01
9.919869e+01
9.915538e+01
9.911208e+01
9.906878e+01
9.902548e+01
9.898218e+01
9.893888e+01
9.889558e+01
9.885228e+01
9.880897e+01
9.876567e+01
9.872237e+01
9.867907e+01
9.863577e+01
9.859247e+01
9.854917e+01
9.850587e+01
9.846256e+01
1.008624e+02
1.008191e+02
1.007758e+02
1.007325e+02
1.006892e+02
1.006459e+02
1.006026e+02
1.005593e+02
1.005160e+02
1.004727e+02
1.004294e+02
1.003861e+02
1.003428e+02
1.002995e+02
1.002562e+02
1.002129e+02
1.001696e+02
1.001263e+02
1.000830e+02
1.000397e+02
9.999641e+01
9.995311e+01
9.990981e+01
9.986651e+01
9.982321e+01
9.977990e+01
9.973660e+01
9.969330e+01
9.965000e+01
9.960670e+01
9.956340e+01
9.952010e+01
9.947679e+01
9.943349e+01
9.939019e+01
9.934689e+01
9.930359e+01
9.926029e+01
9.921699e+01
9.917369e+01
9.913038e+01
9.908708e+01
9.904378e+01
9.900048e+01
9.895718e+01
9.891388e+01
9.887058e+01
9.882728e+01
9.878397e+01
9.874067e+01
9.869737e+01
9.865407e+01
9.861077e+01
9.856747e+01
9.852417e+01
9.848087e+01
9.843756e+01
1.008374e+02
1.007941e+02
1.007508e+02
1.007075e+02
1.006642e+02
1.006209e+02
1.005776e+02
1.005343e+02
1.004910e+02
1.004477e+02
1.004044e+02
1.003611e+02
1.003178e+02
1.002745e+02
1.002312e+02
1.001879e+02
1.001446e+02
1.001013e+02
1.000580e+02
1.000147e+02
9.997141e+01
9.992811e+01
9.988481e+01
9.984151e+01
9.979821e+01
9.975490e+01
9.971160e+01
9.966830e+01
9.962500e+01
9.958170e+01
9.953840e+01
9.949510e+01
9.945179e+01
9.940849e+01
9.936519e+01
9.932189e+01
9.927859e+01
9.923529e+01
9.919199e+01
9.914869e+01
9.910538e+01
9.906208e+01
9.901878e+01
9.897548e+01
9.893218e+01
9.888888e+01
9.884558e+01
9.880228e+01
9.875897e+01
9.871567e+01
9.867237e+01
9.862907e+01
9.858577e+01
9.854247e+01
9.849917e+01
9.845587e+01
9.841256e+01
1.008124e+02
1.007691e+02
1.007258e+02
1.006825e+02
1.006392e+02
1.005959e+02
1.005526e+02
1.005093e+02
1.004660e+02
1.004227e+02
1.003794e+02
1.003361e+02
1.002928e+02
1.002495e+02
1.002062e+02
1.001629e+02
1.001196e+02
1.000763e+02
1.000330e+02
9.998971e+01
9.994641e+01
9.990311e+01
9.985981e+01
9.981651e+01
9.977321e+01
9.972990e+01
9.968660e+01
9.964330e+01
9.960000e+01
9.955670e+01
9.951340e+01
9.947010e+01
9.942679e+01
9.938349e+01
9.934019e+01
9.929689e+01
9.925359e+01
9.921029e+01
9.916699e+01
9.912369e+01
9.908038e+01
9.903708e+01
9.899378e+01
9.895048e+01
9.890718e+01
9.886388e+01
9.882058e+01
9.877728e+01
9.873397e+01
9.869067e+01
9.864737e+01
9.860407e+01
9.856077e+01
9.851747e+01
9.847417e+01
9.843087e+01
9.838756e+01
1.007874e+02
1.007441e+02
1.007008e+02
1.006575e+02
1.006142e+02
1.005709e+02
1.005276e+02
1.004843e+02
1.004410e+02
1.003977e+02
1.003544e+02
1.003111e+02
1.002678e+02
1.002245e+02
1.001812e+02
1.001379e+02
1.000946e+02
1.000513e+02
1.000080e+02
9.996471e+01
9.992141e+01
9.987811e+01
9.983481e+01
9.979151e+01
9.974821e+01
9.970490e+01
9.966160e+01
9.961830e+01
9.957500e+01
9.953170e+01
9.948840e+01
9.944510e+01
9.940179e+01
9.935849e+01
9.931519e+01
9.927189e+01
9.922859e+01
9.918529e+01
9.914199e+01
9.909869e+01
9.905538e+01
9.901208e+01
9.896878e+01
9.892548e+01
9.888218e+01
9.883888e+01
9.879558e+01
9.875228e+01
9.870897e+01
9.866567e+01
9.862237e+01
9.857907e+01
9.853577e+01
9.849247e+01
9.844917e+01
9.840587e+01
9.836256e+01
1.007624e+02
1.007191e+02
1.006758e+02
1.006325e+02
1.005892e+02
1.005459e+02
1.005026e+02
1.004593e+02
1.004160e+02
1.003727e+02
1.003294e+02
1.002861e+02
1.002428e+02
1.001995e+02
1.001562e+02
1.001129e+02
1.000696e+02
1.000263e+02
9.998301e+01
9.993971e+01
9.989641e+01
9.985311e+01
9.980981e+01
9.976651e+01
9.972321e+01
9.967990e+01
9.963660e+01
9.959330e+01
9.955000e+01
9.950670e+01
9.946340e+01
9.942010e+01
9.937679e+01
9.933349e+01
9.929019e+01
9.924689e+01
9.920359e+01
9.916029e+01
9.911699e+01
9.907369e+01
9.903038e+01
9.898708e+01
9.894378e+01
9.890048e+01
9.885718e+01
9.881388e+01
9.877058e+01
9.872728e+01
9.868397e+01
9.864067e+01
9.859737e+01
9.855407e+01
9.851077e+01
9.846747e+01
9.842417e+01
9.838087e+01
9.833756e+01
1.007374e+02
1.006941e+02
1.006508e+02
1.006075e+02
1.005642e+02
1.005209e+02
1.004776e+02
1.004343e+02
1.003910e+02
1.003477e+02
1.003044e+02
1.002611e+02
1.002178e+02
1.001745e+02
1.001312e+02
1.000879e+02
1.000446e+02
1.000013e+02
9.995801e+01
9.991471e+01
9.987141e+01
9.982811e+01
9.978481e+01
9.974151e+01
9.969821e+01
9.965490e+01
9.961160e+01
9.956830e+01
9.952500e+01
9.948170e+01
9.943840e+01
9.939510e+01
9.935179e+01
9.930849e+01
9.926519e+01
9.922189e+01
9.917859e+01
9.913529e+01
9.909199e+01
9.904869e+01
9.900538e+01
9.896208e+01
9.891878e+01
9.887548e+01
9.883218e+01
9.878888e+01
9.874558e+01
9.870228e+01
9.865897e+01
9.861567e+01
9.857237e+01
9.852907e+01
9.848577e+01
9.844247e+01
9.839917e+01
9.835587e+01
9.831256e+01
1.007124e+02
1.006691e+02
1.006258e+02
1.005825e+02
1.005392e+02
1.004959e+02
1.004526e+02
1.004093e+02
1.003660e+02
1.003227e+02
1.002794e+02
1.002361e+02
1.001928e+02
1.001495e+02
1.001062e+02
1.000629e+02
1.000196e+02
9.997631e+01
9.993301e+01
9.988971e+01
9.984641e+01
9.980311e+01
9.975981e+01
9.971651e+01
9.967321e+01
9.962990e+01
9.958660e+01
9.954330e+01
9.950000e+01
9.945670e+01
9.941340e+01
9.937010e+01
9.932679e+01
9.928349e+01
9.924019e+01
9.919689e+01
9.915359e+01
9.911029e+01
9.906699e+01
9.902369e+01
9.898038e+01
9.893708e+01
9.889378e+01
9.885048e+01
9.880718e+01
9.876388e+01
9.872058e+01
9.867728e+01
9.863397e+01
9.859067e+01
9.854737e+01
9.850407e+01
9.846077e+01
9.841747e+01
9.837417e+01
9.833087e+01
9.828756e+01
