# vtk DataFile Version 3.4
Image
ASCII
DATASET STRUCTURED_POINTS
DIMENSIONS 57 40 1
ORIGIN 0.000000 0.000000 0.000000
SPACING 1.000000 1.000000 1.000000
POINT_DATA 2280
SCALARS facies float 1
LOOKUP_TABLE default
1.000411e+02
1.000406e+02
1.000401e+02
1.000396e+02
1.000391e+02
1.000386e+02
1.000381e+02
1.000376e+02
1.000370e+02
1.000365e+02
1.000360e+02
1.000355e+02
1.000350e+02
1.000345e+02
1.000340e+02
1.000335e+02
1.000329e+02
1.000324e+02
1.000319e+02
1.000314e+02
1.000309e+02
1.000304e+02
1.000299e+02
1.000293e+02
1.000288e+02
1.000283e+02
1.000278e+02
1.000273e+02
1.000268e+02
1.000263e+02
1.000258e+02
1.000252e+02
1.000247e+02
1.000242e+02
1.000237e+02
1.000232e+02
1.000227e+02
1.000222e+02
1.000217e+02
1.000211e+02
1.000206e+02
1.000201e+02
1.000196e+02
1.000191e+02
1.000186e+02
1.000181e+02
1.000175e+02
1.000170e+02
1.000165e+02
1.000160e+02
1.000155e+02
1.000150e+02
1.000145e+02
1.000140e+02
1.000134e+02
1.000129e+02
1.000124e+02
1.000397e+02
1.000392e+02
1.000387e+02
1.000382e+02
1.000377e+02
1.000372e+02
1.000367e+02
1.000361e+02
1.000356e+02
1.000351e+02
1.000346e+02
1.000341e+02
1.000336e+02
1.000331e+02
1.000326e+02
1.000320e+02
1.000315e+02
1.000310e+02
1.000305e+02
1.000300e+02
1.000295e+02
1.000290e+02
1.000284e+02
1.000279e+02
1.000274e+02
1.000269e+02
1.000264e+02
1.000259e+02
1.000254e+02
1.000249e+02
1.000243e+02
1.000238e+02
1.000233e+02
1.000228e+02
1.000223e+02
1.000218e+02
1.000213e+02
1.000208e+02
1.000202e+02
1.000197e+02
1.000192e+02
1.000187e+02
1.000182e+02
1.000177e+02
1.000172e+02
1.000167e+02
1.000161e+02
1.000156e+02
1.000151e+02
1.000146e+02
1.000141e+02
1.000136e+02
1.000131e+02
1.000125e+02
1.000120e+02
1.000115e+02
1.000110e+02
1.000383e+02
1.000378e+02
1.000373e+02
1.000368e+02
1.000363e+02
1.000358e+02
1.000352e+02
1.000347e+02
1.000342e+02
1.000337e+02
1.000332e+02
1.000327e+02
1.000322e+02
1.000317e+02
1.000311e+02
1.000306e+02
1.000301e+02
1.000296e+02
1.000291e+02
1.000286e+02
1.000281e+02
1.000276e+02
1.000270e+02
1.000265e+02
1.000260e+02
1.000255e+02
1.000250e+02
1.000245e+02
1.000240e+02
1.000234e+02
1.000229e+02
1.000224e+02
1.000219e+02
1.000214e+02
1.000209e+02
1.000204e+02
1.000199e+02
1.000193e+02
1.000188e+02
1.000183e+02
1.000178e+02
1.000173e+02
1.000168e+02
1.000163e+02
1.000158e+02
1.000152e+02
1.000147e+02
1.000142e+02
1.000137e+02
1.000132e+02
1.000127e+02
1.000122e+02
1.000116e+02
1.000111e+02
1.000106e+02
1.000101e+02
1.000096e+02
1.000369e+02
1.000364e+02
1.000359e+02
1.000354e+02
1.000349e+02
1.000344e+02
1.000338e+02
1.000333e+02
1.000328e+02
1.000323e+02
1.000318e+02
1.000313e+02
1.000308e+02
1.000302e+02
1.000297e+02
1.000292e+02
1.000287e+02
1.000282e+02
1.000277e+02
1.000272e+02
1.000267e+02
1.000261e+02
1.000256e+02
1.000251e+02
1.000246e+02
1.000241e+02
1.000236e+02
1.000231e+02
1.000226e+02
1.000220e+02
1.000215e+02
1.000210e+02
1.000205e+02
1.000200e+02
1.000195e+02
1.000190e+02
1.000184e+02
1.000179e+02
1.000174e+02
1.000169e+02
1.000164e+02
1.000159e+02
1.000154e+02
1.000149e+02
1.000143e+02
1.000138e+02
1.000133e+02
1.000128e+02
1.000123e+02
1.000118e+02
1.000113e+02
1.000108e+02
1.000102e+02
1.000097e+02
1.000092e+02
1.000087e+02
1.000082e+02
1.000355e+02
1.000350e+02
1.000345e+02
1.000340e+02
1.000335e+02
1.000329e+02
1.000324e+02
1.000319e+02
1.000314e+02
1.000309e+02
1.000304e+02
1.000299e+02
1.000294e+02
1.000288e+02
1.000283e+02
1.000278e+02
1.000273e+02
1.000268e+02
1.000263e+02
1.000258e+02
1.000252e+02
1.000247e+02
1.000242e+02
1.000237e+02
1.000232e+02
1.000227e+02
1.000222e+02
1.000217e+02
1.000211e+02
1.000206e+02
1.000201e+02
1.000196e+02
1.000191e+02
1.000186e+02
1.000181e+02
1.000176e+02
1.000170e+02
1.000165e+02
1.000160e+02
1.000155e+02
1.000150e+02
1.000145e+02
1.000140e+02
1.000134e+02
1.000129e+02
1.000124e+02
1.000119e+02
1.000114e+02
1.000109e+02
1.000104e+02
1.000099e+02
1.000093e+02
1.000088e+02
1.000083e+02
1.000078e+02
1.000073e+02
1.000068e+02
1.000341e+02
1.000336e+02
1.000331e+02
1.000326e+02
1.000320e+02
1.000315e+02
1.000310e+02
1.000305e+02
1.000300e+02
1.000295e+02
1.000290e+02
1.000285e+02
1.000279e+02
1.000274e+02
1.000269e+02
1.000264e+02
1.000259e+02
1.000254e+02
1.000249e+02
1.000244e+02
1.000238e+02
1.000233e+02
1.000228e+02
1.000223e+02
1.000218e+02
1.000213e+02
1.000208e+02
1.000202e+02
1.000197e+02
1.000192e+02
1.000187e+02
1.000182e+02
1.000177e+02
1.000172e+02
1.000167e+02
1.000161e+02
1.000156e+02
1.000151e+02
1.000146e+02
1.000141e+02
1.000136e+02
1.000131e+02
1.000126e+02
1.000120e+02
1.000115e+02
1.000110e+02
1.000105e+02
1.000100e+02
1.000095e+02
1.000090e+02
1.000084e+02
1.000079e+02
1.000074e+02
1.000069e+02
1.000064e+02
1.000059e+02
1.000054e+02
1.000327e+02
1.000322e+02
1.000317e+02
1.000311e+02
1.000306e+02
1.000301e+02
1.000296e+02
1.000291e+02
1.000286e+02
1.000281e+02
1.000276e+02
1.000270e+02
1.000265e+02
1.000260e+02
1.000255e+02
1.000250e+02
1.000245e+02
1.000240e+02
1.000235e+02
1.000229e+02
1.000224e+02
1.000219e+02
1.000214e+02
1.000209e+02
1.000204e+02
1.000199e+02
1.000194e+02
1.000188e+02
1.000183e+02
1.000178e+02
1.000173e+02
1.000168e+02
1.000163e+02
1.000158e+02
1.000152e+02
1.000147e+02
1.000142e+02
1.000137e+02
1.000132e+02
1.000127e+02
1.000122e+02
1.000117e+02
1.000111e+02
1.000106e+02
1.000101e+02
1.000096e+02
1.000091e+02
1.000086e+02
1.000081e+02
1.000076e+02
1.000070e+02
1.000065e+02
1.000060e+02
1.000055e+02
1.000050e+02
1.000045e+02
1.000040e+02
1.000313e+02
1.000308e+02
1.000303e+02
1.000297e+02
1.000292e+02
1.000287e+02
1.000282e+02
1.000277e+02
1.000272e+02
1.000267e+02
1.000261e+02
1.000256e+02
1.000251e+02
1.000246e+02
1.000241e+02
1.000236e+02
1.000231e+02
1.000226e+02
1.000220e+02
1.000215e+02
1.000210e+02
1.000205e+02
1.000200e+02
1.000195e+02
1.000190e+02
1.000185e+02
1.000179e+02
1.000174e+02
1.000169e+02
1.000164e+02
1.000159e+02
1.000154e+02
1.000149e+02
1.000143e+02
1.000138e+02
1.000133e+02
1.000128e+02
1.000123e+02
1.000118e+02
1.000113e+02
1.000108e+02
1.000102e+02
1.000097e+02
1.000092e+02
1.000087e+02
1.000082e+02
1.000077e+02
1.000072e+02
1.000067e+02
1.000061e+02
1.000056e+02
1.000051e+02
1.000046e+02
1.000041e+02
1.000036e+02
1.000031e+02
1.000025e+02
1.000299e+02
1.000294e+02
1.000288e+02
1.000283e+02
1.000278e+02
1.000273e+02
1.000268e+02
1.000263e+02
1.000258e+02
1.000253e+02
1.000247e+02
1.000242e+02
1.000237e+02
1.000232e+02
1.000227e+02
1.000222e+02
1.000217e+02
1.000211e+02
1.000206e+02
1.000201e+02
1.000196e+02
1.000191e+02
1.000186e+02
1.000181e+02
1.000176e+02
1.000170e+02
1.000165e+02
1.000160e+02
1.000155e+02
1.000150e+02
1.000145e+02
1.000140e+02
1.000135e+02
1.000129e+02
1.000124e+02
1.000119e+02
1.000114e+02
1.000109e+02
1.000104e+02
1.000099e+02
1.000093e+02
1.000088e+02
1.000083e+02
1.000078e+02
1.000073e+02
1.000068e+02
1.000063e+02
1.000058e+02
1.000052e+02
1.000047e+02
1.000042e+02
1.000037e+02
1.000032e+02
1.000027e+02
1.000022e+02
1.000017e+02
1.000011e+02
1.000285e+02
1.000279e+02
1.000274e+02
1.000269e+02
1.000264e+02
1.000259e+02
1.000254e+02
1.000249e+02
1.000244e+02
1.000238e+02
1.000233e+02
1.000228e+02
1.000223e+02
1.000218e+02
1.000213e+02
1.000208e+02
1.000203e+02
1.000197e+02
1.000192e+02
1.000187e+02
1.000182e+02
1.000177e+02
1.000172e+02
1.000167e+02
1.000161e+02
1.000156e+02
1.000151e+02
1.000146e+02
1.000141e+02
1.000136e+02
1.000131e+02
1.000126e+02
1.000120e+02
1.000115e+02
1.000110e+02
1.000105e+02
1.000100e+02
1.000095e+02
1.000090e+02
1.000085e+02
1.000079e+02
1.000074e+02
1.000069e+02
1.000064e+02
1.000059e+02
1.000054e+02
1.000049e+02
1.000043e+02
1.000038e+02
1.000033e+02
1.000028e+02
1.000023e+02
1.000018e+02
1.000013e+02
1.000008e+02
1.000002e+02
9.999973e+01
1.000271e+02
1.000265e+02
1.000260e+02
1.000255e+02
1.000250e+02
1.000245e+02
1.000240e+02
1.000235e+02
1.000229e+02
1.000224e+02
1.000219e+02
1.000214e+02
1.000209e+02
1.000204e+02
1.000199e+02
1.000194e+02
1.000188e+02
1.000183e+02
1.000178e+02
1.000173e+02
1.000168e+02
1.000163e+02
1.000158e+02
1.000153e+02
1.000147e+02
1.000142e+02
1.000137e+02
1.000132e+02
1.000127e+02
1.000122e+02
1.000117e+02
1.000111e+02
1.000106e+02
1.000101e+02
1.000096e+02
1.000091e+02
1.000086e+02
1.000081e+02
1.000076e+02
1.000070e+02
1.000065e+02
1.000060e+02
1.000055e+02
1.000050e+02
1.000045e+02
1.000040e+02
1.000035e+02
1.000029e+02
1.000024e+02
1.000019e+02
1.000014e+02
1.000009e+02
1.000004e+02
9.999986e+01
9.999935e+01
9.999883e+01
9.999832e+01
1.000256e+02
1.000251e+02
1.000246e+02
1.000241e+02
1.000236e+02
1.000231e+02
1.000226e+02
1.000220e+02
1.000215e+02
1.000210e+02
1.000205e+02
1.000200e+02
1.000195e+02
1.000190e+02
1.000185e+02
1.000179e+02
1.000174e+02
1.000169e+02
1.000164e+02
1.000159e+02
1.000154e+02
1.000149e+02
1.000144e+02
1.000138e+02
1.000133e+02
1.000128e+02
1.000123e+02
1.000118e+02
1.000113e+02
1.000108e+02
1.000103e+02
1.000097e+02
1.000092e+02
1.000087e+02
1.000082e+02
1.000077e+02
1.000072e+02
1.000067e+02
1.000061e+02
1.000056e+02
1.000051e+02
1.000046e+02
1.000041e+02
1.000036e+02
1.000031e+02
1.000026e+02
1.000020e+02
1.000015e+02
1.000010e+02
1.000005e+02
9.999999e+01
9.999948e+01
9.999896e+01
9.999845e+01
9.999794e+01
9.999742e+01
9.999691e+01
1.000242e+02
1.000237e+02
1.000232e+02
1.000227e+02
1.000222e+02
1.000217e+02
1.000212e+02
1.000206e+02
1.000201e+02
1.000196e+02
1.000191e+02
1.000186e+02
1.000181e+02
1.000176e+02
1.000170e+02
1.000165e+02
1.000160e+02
1.000155e+02
1.000150e+02
1.000145e+02
1.000140e+02
1.000135e+02
1.000129e+02
1.000124e+02
1.000119e+02
1.000114e+02
1.000109e+02
1.000104e+02
1.000099e+02
1.000094e+02
1.000088e+02
1.000083e+02
1.000078e+02
1.000073e+02
1.000068e+02
1.000063e+02
1.000058e+02
1.000052e+02
1.000047e+02
1.000042e+02
1.000037e+02
1.000032e+02
1.000027e+02
1.000022e+02
1.000017e+02
1.000011e+02
1.000006e+02
1.000001e+02
9.999961e+01
9.999909e+01
9.999858e+01
9.999807e+01
9.999755e+01
9.999704e+01
9.999653e+01
9.999601e+01
9.999550e+01
1.000228e+02
1.000223e+02
1.000218e+02
1.000213e+02
1.000208e+02
1.000203e+02
1.000197e+02
1.000192e+02
1.000187e+02
1.000182e+02
1.000177e+02
1.000172e+02
1.000167e+02
1.000162e+02
1.000156e+02
1.000151e+02
1.000146e+02
1.000141e+02
1.000136e+02
1.000131e+02
1.000126e+02
1.000120e+02
1.000115e+02
1.000110e+02
1.000105e+02
1.000100e+02
1.000095e+02
1.000090e+02
1.000085e+02
1.000079e+02
1.000074e+02
1.000069e+02
1.000064e+02
1.000059e+02
1.000054e+02
1.000049e+02
1.000044e+02
1.000038e+02
1.000033e+02
1.000028e+02
1.000023e+02
1.000018e+02
1.000013e+02
1.000008e+02
1.000002e+02
9.999974e+01
9.999922e+01
9.999871e+01
9.999820e+01
9.999768e+01
9.999717e+01
9.999666e+01
9.999614e+01
9.999563e+01
9.999512e+01
9.999461e+01
9.999409e+01
1.000214e+02
1.000209e+02
1.000204e+02
1.000199e+02
1.000194e+02
1.000188e+02
1.000183e+02
1.000178e+02
1.000173e+02
1.000168e+02
1.000163e+02
1.000158e+02
1.000153e+02
1.000147e+02
1.000142e+02
1.000137e+02
1.000132e+02
1.000127e+02
1.000122e+02
1.000117e+02
1.000112e+02
1.000106e+02
1.000101e+02
1.000096e+02
1.000091e+02
1.000086e+02
1.000081e+02
1.000076e+02
1.000070e+02
1.000065e+02
1.000060e+02
1.000055e+02
1.000050e+02
1.000045e+02
1.000040e+02
1.000035e+02
1.000029e+02
1.000024e+02
1.000019e+02
1.000014e+02
1.000009e+02
1.000004e+02
9.999987e+01
9.999935e+01
9.999884e+01
9.999833e+01
9.999781e+01
9.999730e+01
9.999679e+01
9.999627e+01
9.999576e+01
9.999525e+01
9.999473e+01
9.999422e+01
9.999371e+01
9.999320e+01
9.999268e+01
1.000200e+02
1.000195e+02
1.000190e+02
1.000185e+02
1.000180e+02
1.000174e+02
1.000169e+02
1.000164e+02
1.000159e+02
1.000154e+02
1.000149e+02
1.000144e+02
1.000138e+02
1.000133e+02
1.000128e+02
1.000123e+02
1.000118e+02
1.000113e+02
1.000108e+02
1.000103e+02
1.000097e+02
1.000092e+02
1.000087e+02
1.000082e+02
1.000077e+02
1.000072e+02
1.000067e+02
1.000062e+02
1.000056e+02
1.000051e+02
1.000046e+02
1.000041e+02
1.000036e+02
1.000031e+02
1.000026e+02
1.000020e+02
1.000015e+02
1.000010e+02
1.000005e+02
9.999999e+01
9.999948e+01
9.999897e+01
9.999846e+01
9.999794e+01
9.999743e+01
9.999692e+01
9.999640e+01
9.999589e+01
9.999538e+01
9.999486e+01
9.999435e+01
9.999384e+01
9.999333e+01
9.999281e+01
9.999230e+01
9.999179e+01
9.999127e+01
1.000186e+02
1.000181e+02
1.000176e+02
1.000171e+02
1.000165e+02
1.000160e+02
1.000155e+02
1.000150e+02
1.000145e+02
1.000140e+02
1.000135e+02
1.000130e+02
1.000124e+02
1.000119e+02
1.000114e+02
1.000109e+02
1.000104e+02
1.000099e+02
1.000094e+02
1.000088e+02
1.000083e+02
1.000078e+02
1.000073e+02
1.000068e+02
1.000063e+02
1.000058e+02
1.000053e+02
1.000047e+02
1.000042e+02
1.000037e+02
1.000032e+02
1.000027e+02
1.000022e+02
1.000017e+02
1.000012e+02
1.000006e+02
1.000001e+02
9.999961e+01
9.999910e+01
9.999859e+01
9.999807e+01
9.999756e+01
9.999705e+01
9.999653e+01
9.999602e+01
9.999551e+01
9.999499e+01
9.999448e+01
9.999397e+01
9.999345e+01
9.999294e+01
9.999243e+01
9.999192e+01
9.999140e+01
9.999089e+01
9.999038e+01
9.998986e+01
1.000172e+02
1.000167e+02
1.000162e+02
1.000156e+02
1.000151e+02
1.000146e+02
1.000141e+02
1.000136e+02
1.000131e+02
1.000126e+02
1.000121e+02
1.000115e+02
1.000110e+02
1.000105e+02
1.000100e+02
1.000095e+02
1.000090e+02
1.000085e+02
1.000079e+02
1.000074e+02
1.000069e+02
1.000064e+02
1.000059e+02
1.000054e+02
1.000049e+02
1.000044e+02
1.000038e+02
1.000033e+02
1.000028e+02
1.000023e+02
1.000018e+02
1.000013e+02
1.000008e+02
1.000003e+02
9.999974e+01
9.999923e+01
9.999871e+01
9.999820e+01
9.999769e+01
9.999718e+01
9.999666e+01
9.999615e+01
9.999564e+01
9.999512e+01
9.999461e+01
9.999410e+01
9.999358e+01
9.999307e+01
9.999256e+01
9.999205e+01
9.999153e+01
9.999102e+01
9.999051e+01
9.998999e+01
9.998948e+01
9.998897e+01
9.998845e+01
1.000158e+02
1.000153e+02
1.000147e+02
1.000142e+02
1.000137e+02
1.000132e+02
1.000127e+02
1.000122e+02
1.000117e+02
1.000112e+02
1.000106e+02
1.000101e+02
1.000096e+02
1.000091e+02
1.000086e+02
1.000081e+02
1.000076e+02
1.000071e+02
1.000065e+02
1.000060e+02
1.000055e+02
1.000050e+02
1.000045e+02
1.000040e+02
1.000035e+02
1.000029e+02
1.000024e+02
1.000019e+02
1.000014e+02
1.000009e+02
1.000004e+02
9.999987e+01
9.999936e+01
9.999884e+01
9.999833e+01
9.999782e+01
9.999731e+01
9.999679e+01
9.999628e+01
9.999577e+01
9.999525e+01
9.999474e+01
9.999423e+01
9.999371e+01
9.999320e+01
9.999269e+01
9.999217e+01
9.999166e+01
9.999115e+01
9.999064e+01
9.999012e+01
9.998961e+01
9.998910e+01
9.998858e+01
9.998807e+01
9.998756e+01
9.998704e+01
1.000144e+02
1.000139e+02
1.000133e+02
1.000128e+02
1.000123e+02
1.000118e+02
1.000113e+02
1.000108e+02
1.000103e+02
1.000097e+02
1.000092e+02
1.000087e+02
1.000082e+02
1.000077e+02
1.000072e+02
1.000067e+02
1.000062e+02
1.000056e+02
1.000051e+02
1.000046e+02
1.000041e+02
1.000036e+02
1.000031e+02
1.000026e+02
1.000021e+02
1.000015e+02
1.000010e+02
1.000005e+02
1.000000e+02
9.999949e+01
9.999897e+01
9.999846e+01
9.999795e+01
9.999743e+01
9.999692e+01
9.999641e+01
9.999590e+01
9.999538e+01
9.999487e+01
9.999436e+01
9.999384e+01
9.999333e+01
9.999282e+01
9.999230e+01
9.999179e+01
9.999128e+01
9.999077e+01
9.999025e+01
9.998974e+01
9.998923e+01
9.998871e+01
9.998820e+01
9.998769e+01
9.998717e+01
9.998666e+01
9.998615e+01
9.998564e+01
1.000130e+02
1.000124e+02
1.000119e+02
1.000114e+02
1.000109e+02
1.000104e+02
1.000099e+02
1.000094e+02
1.000089e+02
1.000083e+02
1.000078e+02
1.000073e+02
1.000068e+02
1.000063e+02
1.000058e+02
1.000053e+02
1.000047e+02
1.000042e+02
1.000037e+02
1.000032e+02
1.000027e+02
1.000022e+02
1.000017e+02
1.000012e+02
1.000006e+02
1.000001e+02
9.999962e+01
9.999910e+01
9.999859e+01
9.999808e+01
9.999756e+01
9.999705e+01
9.999654e+01
9.999603e+01
9.999551e+01
9.999500e+01
9.999449e+01
9.999397e+01
9.999346e+01
9.999295e+01
9.999243e+01
9.999192e+01
9.999141e+01
9.999090e+01
9.999038e+01
9.998987e+01
9.998936e+01
9.998884e+01
9.998833e+01
9.998782e+01
9.998730e+01
9.998679e+01
9.998628e+01
9.998576e+01
9.998525e+01
9.998474e+01
9.998423e+01
1.000115e+02
1.000110e+02
1.000105e+02
1.000100e+02
1.000095e+02
1.000090e+02
1.000085e+02
1.000080e+02
1.000074e+02
1.000069e+02
1.000064e+02
1.000059e+02
1.000054e+02
1.000049e+02
1.000044e+02
1.000039e+02
1.000033e+02
1.000028e+02
1.000023e+02
1.000018e+02
1.000013e+02
1.000008e+02
1.000003e+02
9.999975e+01
9.999923e+01
9.999872e+01
9.999821e+01
9.999769e+01
9.999718e+01
9.999667e+01
9.999615e+01
9.999564e+01
9.999513e+01
9.999462e+01
9.999410e+01
9.999359e+01
9.999308e+01
9.999256e+01
9.999205e+01
9.999154e+01
9.999102e+01
9.999051e+01
9.999000e+01
9.998949e+01
9.998897e+01
9.998846e+01
9.998795e+01
9.998743e+01
9.998692e+01
9.998641e+01
9.998589e+01
9.998538e+01
9.998487e+01
9.998436e+01
9.998384e+01
9.998333e+01
9.998282e+01
1.000101e+02
1.000096e+02
1.000091e+02
1.000086e+02
1.000081e+02
1.000076e+02
1.000071e+02
1.000065e+02
1.000060e+02
1.000055e+02
1.000050e+02
1.000045e+02
1.000040e+02
1.000035e+02
1.000030e+02
1.000024e+02
1.000019e+02
1.000014e+02
1.000009e+02
1.000004e+02
9.999988e+01
9.999936e+01
9.999885e+01
9.999834e+01
9.999782e+01
9.999731e+01
9.999680e+01
9.999628e+01
9.999577e+01
9.999526e+01
9.999475e+01
9.999423e+01
9.999372e+01
9.999321e+01
9.999269e+01
9.999218e+01
9.999167e+01
9.999115e+01
9.999064e+01
9.999013e+01
9.998962e+01
9.998910e+01
9.998859e+01
9.998808e+01
9.998756e+01
9.998705e+01
9.998654e+01
9.998602e+01
9.998551e+01
9.998500e+01
9.998448e+01
9.998397e+01
9.998346e+01
9.998295e+01
9.998243e+01
9.998192e+01
9.998141e+01
1.000087e+02
1.000082e+02
1.000077e+02
1.000072e+02
1.000067e+02
1.000062e+02
1.000056e+02
1.000051e+02
1.000046e+02
1.000041e+02
1.000036e+02
1.000031e+02
1.000026e+02
1.000021e+02
1.000015e+02
1.000010e+02
1.000005e+02
1.000000e+02
9.999949e+01
9.999898e+01
9.999847e+01
9.999795e+01
9.999744e+01
9.999693e+01
9.999641e+01
9.999590e+01
9.999539e+01
9.999487e+01
9.999436e+01
9.999385e+01
9.999334e+01
9.999282e+01
9.999231e+01
9.999180e+01
9.999128e+01
9.999077e+01
9.999026e+01
9.998974e+01
9.998923e+01
9.998872e+01
9.998821e+01
9.998769e+01
9.998718e+01
9.998667e+01
9.998615e+01
9.998564e+01
9.998513e+01
9.998461e+01
9.998410e+01
9.998359e+01
9.998308e+01
9.998256e+01
9.998205e+01
9.998154e+01
9.998102e+01
9.998051e+01
9.998000e+01
1.000073e+02
1.000068e+02
1.000063e+02
1.000058e+02
1.000053e+02
1.000048e+02
1.000042e+02
1.000037e+02
1.000032e+02
1.000027e+02
1.000022e+02
1.000017e+02
1.000012e+02
1.000006e+02
1.000001e+02
9.999962e+01
9.999911e+01
9.999860e+01
9.999808e+01
9.999757e+01
9.999706e+01
9.999654e+01
9.999603e+01
9.999552e+01
9.999500e+01
9.999449e+01
9.999398e+01
9.999347e+01
9.999295e+01
9.999244e+01
9.999193e+01
9.999141e+01
9.999090e+01
9.999039e+01
9.998987e+01
9.998936e+01
9.998885e+01
9.998834e+01
9.998782e+01
9.998731e+01
9.998680e+01
9.998628e+01
9.998577e+01
9.998526e+01
9.998474e+01
9.998423e+01
9.998372e+01
9.998320e+01
9.998269e+01
9.998218e+01
9.998167e+01
9.998115e+01
9.998064e+01
9.998013e+01
9.997961e+01
9.997910e+01
9.997859e+01
1.000059e+02
1.000054e+02
1.000049e+02
1.000044e+02
1.000039e+02
1.000033e+02
1.000028e+02
1.000023e+02
1.000018e+02
1.000013e+02
1.000008e+02
1.000003e+02
9.999975e+01
9.999924e+01
9.999873e+01
9.999821e+01
9.999770e+01
9.999719e+01
9.999667e+01
9.999616e+01
9.999565e+01
9.999513e+01
9.999462e+01
9.999411e+01
9.999359e+01
9.999308e+01
9.999257e+01
9.999206e+01
9.999154e+01
9.999103e+01
9.999052e+01
9.999000e+01
9.998949e+01
9.998898e+01
9.998846e+01
9.998795e+01
9.998744e+01
9.998693e+01
9.998641e+01
9.998590e+01
9.998539e+01
9.998487e+01
9.998436e+01
9.998385e+01
9.998333e+01
9.998282e+01
9.998231e+01
9.998180e+01
9.998128e+01
9.998077e+01
9.998026e+01
9.997974e+01
9.997923e+01
9.997872e+01
9.997820e+01
9.997769e+01
9.997718e+01
1.000045e+02
1.000040e+02
1.000035e+02
1.000030e+02
1.000024e+02
1.000019e+02
1.000014e+02
1.000009e+02
1.000004e+02
9.999988e+01
9.999937e+01
9.999885e+01
9.999834e+01
9.999783e+01
9.999732e+01
9.999680e+01
9.999629e+01
9.999578e+01
9.999526e+01
9.999475e+01
9.999424e+01
9.999372e+01
9.999321e+01
9.999270e+01
9.999219e+01
9.999167e+01
9.999116e+01
9.999065e+01
9.999013e+01
9.998962e+01
9.998911e+01
9.998859e+01
9.998808e+01
9.998757e+01
9.998706e+01
9.998654e+01
9.998603e+01
9.998552e+01
9.998500e+01
9.998449e+01
9.998398e+01
9.998346e+01
9.998295e+01
9.998244e+01
9.998192e+01
9.998141e+01
9.998090e+01
9.998039e+01
9.997987e+01
9.997936e+01
9.997885e+01
9.997833e+01
9.997782e+01
9.997731e+01
9.997679e+01
9.997628e+01
9.997577e+01
1.000031e+02
1.000026e+02
1.000021e+02
1.000015e+02
1.000010e+02
1.000005e+02
1.000000e+02
9.999950e+01
9.999898e+01
9.999847e+01
9.999796e+01
9.999745e+01
9.999693e+01
9.999642e+01
9.999591e+01
9.999539e+01
9.999488e+01
9.999437e+01
9.999385e+01
9.999334e+01
9.999283e+01
9.999231e+01
9.999180e+01
9.999129e+01
9.999078e+01
9.999026e+01
9.998975e+01
9.998924e+01
9.998872e+01
9.998821e+01
9.998770e+01
9.998718e+01
9.998667e+01
9.998616e+01
9.998565e+01
9.998513e+01
9.998462e+01
9.998411e+01
9.998359e+01
9.998308e+01
9.998257e+01
9.998205e+01
9.998154e+01
9.998103e+01
9.998052e+01
9.998000e+01
9.997949e+01
9.997898e+01
9.997846e+01
9.997795e+01
9.997744e+01
9.997692e+01
9.997641e+01
9.997590e+01
9.997538e+01
9.997487e+01
9.997436e+01
1.000017e+02
1.000012e+02
1.000007e+02
1.000001e+02
9.999963e+01
9.999911e+01
9.999860e+01
9.999809e+01
9.999757e+01
9.999706e+01
9.999655e+01
9.999604e+01
9.999552e+01
9.999501e+01
9.999450e+01
9.999398e+01
9.999347e+01
9.999296e+01
9.999244e+01
9.999193e+01
9.999142e+01
9.999091e+01
9.999039e+01
9.998988e+01
9.998937e+01
9.998885e+01
9.998834e+01
9.998783e+01
9.998731e+01
9.998680e+01
9.998629e+01
9.998578e+01
9.998526e+01
9.998475e+01
9.998424e+01
9.998372e+01
9.998321e+01
9.998270e+01
9.998218e+01
9.998167e+01
9.998116e+01
9.998064e+01
9.998013e+01
9.997962e+01
9.997911e+01
9.997859e+01
9.997808e+01
9.997757e+01
9.997705e+01
9.997654e+01
9.997603e+01
9.997551e+01
9.997500e+01
9.997449e+01
9.997398e+01
9.997346e+01
9.997295e+01
1.000003e+02
9.999976e+01
9.999924e+01
9.999873e+01
9.999822e+01
9.999770e+01
9.999719e+01
9.999668e+01
9.999617e+01
9.999565e+01
9.999514e+01
9.999463e+01
9.999411e+01
9.999360e+01
9.999309e+01
9.999257e+01
9.999206e+01
9.999155e+01
9.999103e+01
9.999052e+01
9.999001e+01
9.998950e+01
9.998898e+01
9.998847e+01
9.998796e+01
9.998744e+01
9.998693e+01
9.998642e+01
9.998590e+01
9.998539e+01
9.998488e+01
9.998437e+01
9.998385e+01
9.998334e+01
9.998283e+01
9.998231e+01
9.998180e+01
9.998129e+01
9.998077e+01
9.998026e+01
9.997975e+01
9.997924e+01
9.997872e+01
9.997821e+01
9.997770e+01
9.997718e+01
9.997667e+01
9.997616e+01
9.997564e+01
9.997513e+01
9.997462e+01
9.997410e+01
9.997359e+01
9.997308e+01
9.997257e+01
9.997205e+01
9.997154e+01
9.999886e+01
9.999835e+01
9.999783e+01
9.999732e+01
9.999681e+01
9.999629e+01
9.999578e+01
9.999527e+01
9.999476e+01
9.999424e+01
9.999373e+01
9.999322e+01
9.999270e+01
9.999219e+01
9.999168e+01
9.999116e+01
9.999065e+01
9.999014e+01
9.998963e+01
9.998911e+01
9.998860e+01
9.998809e+01
9.998757e+01
9.998706e+01
9.998655e+01
9.998603e+01
9.998552e+01
9.998501e+01
9.998450e+01
9.998398e+01
9.998347e+01
9.998296e+01
9.998244e+01
9.998193e+01
9.998142e+01
9.998090e+01
9.998039e+01
9.997988e+01
9.997936e+01
9.997885e+01
9.997834e+01
9.997783e+01
9.997731e+01
9.997680e+01
9.997629e+01
9.997577e+01
9.997526e+01
9.997475e+01
9.997423e+01
9.997372e+01
9.997321e+01
9.997270e+01
9.997218e+01
9.997167e+01
9.997116e+01
9.997064e+01
9.997013e+01
9.999745e+01
9.999694e+01
9.999642e+01
9.999591e+01
9.999540e+01
9.999489e+01
9.999437e+01
9.999386e+01
9.999335e+01
9.999283e+01
9.999232e+01
9.999181e+01
9.999129e+01
9.999078e+01
9.999027e+01
9.998975e+01
9.998924e+01
9.998873e+01
9.998822e+01
9.998770e+01
9.998719e+01
9.998668e+01
9.998616e+01
9.998565e+01
9.998514e+01
9.998462e+01
9.998411e+01
9.998360e+01
9.998309e+01
9.998257e+01
9.998206e+01
9.998155e+01
9.998103e+01
9.998052e+01
9.998001e+01
9.997949e+01
9.997898e+01
9.997847e+01
9.997796e+01
9.997744e+01
9.997693e+01
9.997642e+01
9.997590e+01
9.997539e+01
9.997488e+01
9.997436e+01
9.997385e+01
9.997334e+01
9.997282e+01
9.997231e+01
9.997180e+01
9.997129e+01
9.997077e+01
9.997026e+01
9.996975e+01
9.996923e+01
9.996872e+01
9.999604e+01
9.999553e+01
9.999501e+01
9.999450e+01
9.999399e+01
9.999348e+01
9.999296e+01
9.999245e+01
9.999194e+01
9.999142e+01
9.999091e+01
9.999040e+01
9.998988e+01
9.998937e+01
9.998886e+01
9.998835e+01
9.998783e+01
9.998732e+01
9.998681e+01
9.998629e+01
9.998578e+01
9.998527e+01
9.998475e+01
9.998424e+01
9.998373e+01
9.998322e+01
9.998270e+01
9.998219e+01
9.998168e+01
9.998116e+01
9.998065e+01
9.998014e+01
9.997962e+01
9.997911e+01
9.997860e+01
9.997808e+01
9.997757e+01
9.997706e+01
9.997655e+01
9.997603e+01
9.997552e+01
9.997501e+01
9.997449e+01
9.997398e+01
9.997347e+01
9.997295e+01
9.997244e+01
9.997193e+01
9.997142e+01
9.997090e+01
9.997039e+01
9.996988e+01
9.996936e+01
9.996885e+01
9.996834e+01
9.996782e+01
9.996731e+01
9.999463e+01
9.999412e+01
9.999361e+01
9.999309e+01
9.999258e+01
9.999207e+01
9.999155e+01
9.999104e+01
9.999053e+01
9.999001e+01
9.998950e+01
9.998899e+01
9.998847e+01
9.998796e+01
9.998745e+01
9.998694e+01
9.998642e+01
9.998591e+01
9.998540e+01
9.998488e+01
9.998437e+01
9.998386e+01
9.998334e+01
9.998283e+01
9.998232e+01
9.998181e+01
9.998129e+01
9.998078e+01
9.998027e+01
9.997975e+01
9.997924e+01
9.997873e+01
9.997821e+01
9.997770e+01
9.997719e+01
9.997668e+01
9.997616e+01
9.997565e+01
9.997514e+01
9.997462e+01
9.997411e+01
9.997360e+01
9.997308e+01
9.997257e+01
9.997206e+01
9.997154e+01
9.997103e+01
9.997052e+01
9.997001e+01
9.996949e+01
9.996898e+01
9.996847e+01
9.996795e+01
9.996744e+01
9.996693e+01
9.996641e+01
9.996590e+01
9.999322e+01
9.999271e+01
9.999220e+01
9.999168e+01
9.999117e+01
9.999066e+01
9.999014e+01
9.998963e+01
9.998912e+01
9.998860e+01
9.998809e+01
9.998758e+01
9.998707e+01
9.998655e+01
9.998604e+01
9.998553e+01
9.998501e+01
9.998450e+01
9.998399e+01
9.998347e+01
9.998296e+01
9.998245e+01
9.998194e+01
9.998142e+01
9.998091e+01
9.998040e+01
9.997988e+01
9.997937e+01
9.997886e+01
9.997834e+01
9.997783e+01
9.997732e+01
9.997680e+01
9.997629e+01
9.997578e+01
9.997527e+01
9.997475e+01
9.997424e+01
9.997373e+01
9.997321e+01
9.997270e+01
9.997219e+01
9.997167e+01
9.997116e+01
9.997065e+01
9.997014e+01
9.996962e+01
9.996911e+01
9.996860e+01
9.996808e+01
9.996757e+01
9.996706e+01
9.996654e+01
9.996603e+01
9.996552e+01
9.996501e+01
9.996449e+01
9.999181e+01
9.999130e+01
9.999079e+01
9.999027e+01
9.998976e+01
9.998925e+01
9.998873e+01
9.998822e+01
9.998771e+01
9.998719e+01
9.998668e+01
9.998617e+01
9.998566e+01
9.998514e+01
9.998463e+01
9.998412e+01
9.998360e+01
9.998309e+01
9.998258e+01
9.998206e+01
9.998155e+01
9.998104e+01
9.998053e+01
9.998001e+01
9.997950e+01
9.997899e+01
9.997847e+01
9.997796e+01
9.997745e+01
9.997693e+01
9.997642e+01
9.997591e+01
9.997540e+01
9.997488e+01
9.997437e+01
9.997386e+01
9.997334e+01
9.997283e+01
9.997232e+01
9.997180e+01
9.997129e+01
9.997078e+01
9.997026e+01
9.996975e+01
9.996924e+01
9.996873e+01
9.996821e+01
9.996770e+01
9.996719e+01
9.996667e+01
9.996616e+01
9.996565e+01
9.996513e+01
9.996462e+01
9.996411e+01
9.996360e+01
9.996308e+01
9.999040e+01
9.998989e+01
9.998938e+01
9.998886e+01
9.998835e+01
9.998784e+01
9.998732e+01
9.998681e+01
9.998630e+01
9.998579e+01
9.998527e+01
9.998476e+01
9.998425e+01
9.998373e+01
9.998322e+01
9.998271e+01
9.998219e+01
9.998168e+01
9.998117e+01
9.998066e+01
9.998014e+01
9.997963e+01
9.997912e+01
9.997860e+01
9.997809e+01
9.997758e+01
9.997706e+01
9.997655e+01
9.997604e+01
9.997552e+01
9.997501e+01
9.997450e+01
9.997399e+01
9.997347e+01
9.997296e+01
9.997245e+01
9.997193e+01
9.997142e+01
9.997091e+01
9.997039e+01
9.996988e+01
9.996937e+01
9.996886e+01
9.996834e+01
9.996783e+01
9.996732e+01
9.996680e+01
9.996629e+01
9.996578e+01
9.996526e+01
9.996475e+01
9.996424e+01
9.996373e+01
9.996321e+01
9.996270e+01
9.996219e+01
9.996167e+01
9.998899e+01
9.998848e+01
9.998797e+01
9.998745e+01
9.998694e+01
9.998643e+01
9.998591e+01
9.998540e+01
9.998489e+01
9.998438e+01
9.998386e+01
9.998335e+01
9.998284e+01
9.998232e+01
9.998181e+01
9.998130e+01
9.998078e+01
9.998027e+01
9.997976e+01
9.997925e+01
9.997873e+01
9.997822e+01
9.997771e+01
9.997719e+01
9.997668e+01
9.997617e+01
9.997565e+01
9.997514e+01
9.997463e+01
9.997412e+01
9.997360e+01
9.997309e+01
9.997258e+01
9.997206e+01
9.997155e+01
9.997104e+01
9.997052e+01
9.997001e+01
9.996950e+01
9.996898e+01
9.996847e+01
9.996796e+01
9.996745e+01
9.996693e+01
9.996642e+01
9.996591e+01
9.996539e+01
9.996488e+01
9.996437e+01
9.996385e+01
9.996334e+01
9.996283e+01
9.996232e+01
9.996180e+01
9.996129e+01
9.996078e+01
9.996026e+01
9.998758e+01
9.998707e+01
9.998656e+01
9.998604e+01
9.998553e+01
9.998502e+01
9.998451e+01
9.998399e+01
9.998348e+01
9.998297e+01
9.998245e+01
9.998194e+01
9.998143e+01
9.998091e+01
9.998040e+01
9.997989e+01
9.997938e+01
9.997886e+01
9.997835e+01
9.997784e+01
9.997732e+01
9.997681e+01
9.997630e+01
9.997578e+01
9.997527e+01
9.997476e+01
9.997424e+01
9.997373e+01
9.997322e+01
9.997271e+01
9.997219e+01
9.997168e+01
9.997117e+01
9.997065e+01
9.997014e+01
9.996963e+01
9.996911e+01
9.996860e+01
9.996809e+01
9.996758e+01
9.996706e+01
9.996655e+01
9.996604e+01
9.996552e+01
9.996501e+01
9.996450e+01
9.996398e+01
9.996347e+01
9.996296e+01
9.996245e+01
9.996193e+01
9.996142e+01
9.996091e+01
9.996039e+01
9.995988e+01
9.995937e+01
9.995885e+01
9.998617e+01
9.998566e+01
9.998515e+01
9.998463e+01
9.998412e+01
9.998361e+01
9.998310e+01
9.998258e+01
9.998207e+01
9.998156e+01
9.998104e+01
9.998053e+01
9.998002e+01
9.997950e+01
9.997899e+01
9.997848e+01
9.997797e+01
9.997745e+01
9.997694e+01
9.997643e+01
9.997591e+01
9.997540e+01
9.997489e+01
9.997437e+01
9.997386e+01
9.997335e+01
9.997284e+01
9.997232e+01
9.997181e+01
9.997130e+01
9.997078e+01
9.997027e+01
9.996976e+01
9.996924e+01
9.996873e+01
9.996822e+01
9.996770e+01
9.996719e+01
9.996668e+01
9.996617e+01
9.996565e+01
9.996514e+01
9.996463e+01
9.996411e+01
9.996360e+01
9.996309e+01
9.996257e+01
9.996206e+01
9.996155e+01
9.996104e+01
9.996052e+01
9.996001e+01
9.995950e+01
9.995898e+01
9.995847e+01
9.995796e+01
9.995744e+01
