# vtk DataFile Version 3.4
Image
ASCII
DATASET STRUCTURED_POINTS
DIMENSIONS 57 40 1
ORIGIN 0.000000 0.000000 0.000000
SPACING 1.000000 1.000000 1.000000
POINT_DATA 2280
SCALARS facies float 1
LOOKUP_TABLE default
1.000354e+02
1.000351e+02
1.000348e+02
1.000346e+02
1.000343e+02
1.000341e+02
1.000338e+02
1.000335e+02
1.000333e+02
1.000330e+02
1.000328e+02
1.000325e+02
1.000322e+02
1.000320e+02
1.000317e+02
1.000315e+02
1.000312e+02
1.000309e+02
1.000307e+02
1.000304e+02
1.000302e+02
1.000299e+02
1.000296e+02
1.000294e+02
1.000291e+02
1.000288e+02
1.000286e+02
1.000283e+02
1.000281e+02
1.000278e+02
1.000275e+02
1.000273e+02
1.000270e+02
1.000268e+02
1.000265e+02
1.000262e+02
1.000260e+02
1.000257e+02
1.000255e+02
1.000252e+02
1.000249e+02
1.000247e+02
1.000244e+02
1.000242e+02
1.000239e+02
1.000236e+02
1.000234e+02
1.000231e+02
1.000229e+02
1.000226e+02
1.000223e+02
1.000221e+02
1.000218e+02
1.000216e+02
1.000213e+02
1.000210e+02
1.000208e+02
1.000339e+02
1.000336e+02
1.000334e+02
1.000331e+02
1.000328e+02
1.000326e+02
1.000323e+02
1.000321e+02
1.000318e+02
1.000315e+02
1.000313e+02
1.000310e+02
1.000308e+02
1.000305e+02
1.000302e+02
1.000300e+02
1.000297e+02
1.000295e+02
1.000292e+02
1.000289e+02
1.000287e+02
1.000284e+02
1.000282e+02
1.000279e+02
1.000276e+02
1.000274e+02
1.000271e+02
1.000269e+02
1.000266e+02
1.000263e+02
1.000261e+02
1.000258e+02
1.000255e+02
1.000253e+02
1.000250e+02
1.000248e+02
1.000245e+02
1.000242e+02
1.000240e+02
1.000237e+02
1.000235e+02
1.000232e+02
1.000229e+02
1.000227e+02
1.000224e+02
1.000222e+02
1.000219e+02
1.000216e+02
1.000214e+02
1.000211e+02
1.000209e+02
1.000206e+02
1.000203e+02
1.000201e+02
1.000198e+02
1.000196e+02
1.000193e+02
1.000324e+02
1.000321e+02
1.000319e+02
1.000316e+02
1.000314e+02
1.000311e+02
1.000308e+02
1.000306e+02
1.000303e+02
1.000301e+02
1.000298e+02
1.000295e+02
1.000293e+02
1.000290e+02
1.000288e+02
1.000285e+02
1.000282e+02
1.000280e+02
1.000277e+02
1.000275e+02
1.000272e+02
1.000269e+02
1.000267e+02
1.000264e+02
1.000262e+02
1.000259e+02
1.000256e+02
1.000254e+02
1.000251e+02
1.000249e+02
1.000246e+02
1.000243e+02
1.000241e+02
1.000238e+02
1.000235e+02
1.000233e+02
1.000230e+02
1.000228e+02
1.000225e+02
1.000222e+02
1.000220e+02
1.000217e+02
1.000215e+02
1.000212e+02
1.000209e+02
1.000207e+02
1.000204e+02
1.000202e+02
1.000199e+02
1.000196e+02
1.000194e+02
1.000191e+02
1.000189e+02
1.000186e+02
1.000183e+02
1.000181e+02
1.000178e+02
1.000309e+02
1.000307e+02
1.000304e+02
1.000301e+02
1.000299e+02
1.000296e+02
1.000294e+02
1.000291e+02
1.000288e+02
1.000286e+02
1.000283e+02
1.000281e+02
1.000278e+02
1.000275e+02
1.000273e+02
1.000270e+02
1.000268e+02
1.000265e+02
1.000262e+02
1.000260e+02
1.000257e+02
1.000255e+02
1.000252e+02
1.000249e+02
1.000247e+02
1.000244e+02
1.000242e+02
1.000239e+02
1.000236e+02
1.000234e+02
1.000231e+02
1.000229e+02
1.000226e+02
1.000223e+02
1.000221e+02
1.000218e+02
1.000216e+02
1.000213e+02
1.000210e+02
1.000208e+02
1.000205e+02
1.000202e+02
1.000200e+02
1.000197e+02
1.000195e+02
1.000192e+02
1.000189e+02
1.000187e+02
1.000184e+02
1.000182e+02
1.000179e+02
1.000176e+02
1.000174e+02
1.000171e+02
1.000169e+02
1.000166e+02
1.000163e+02
1.000295e+02
1.000292e+02
1.000289e+02
1.000287e+02
1.000284e+02
1.000281e+02
1.000279e+02
1.000276e+02
1.000274e+02
1.000271e+02
1.000268e+02
1.000266e+02
1.000263e+02
1.000261e+02
1.000258e+02
1.000255e+02
1.000253e+02
1.000250e+02
1.000248e+02
1.000245e+02
1.000242e+02
1.000240e+02
1.000237e+02
1.000235e+02
1.000232e+02
1.000229e+02
1.000227e+02
1.000224e+02
1.000222e+02
1.000219e+02
1.000216e+02
1.000214e+02
1.000211e+02
1.000209e+02
1.000206e+02
1.000203e+02
1.000201e+02
1.000198e+02
1.000196e+02
1.000193e+02
1.000190e+02
1.000188e+02
1.000185e+02
1.000183e+02
1.000180e+02
1.000177e+02
1.000175e+02
1.000172e+02
1.000169e+02
1.000167e+02
1.000164e+02
1.000162e+02
1.000159e+02
1.000156e+02
1.000154e+02
1.000151e+02
1.000149e+02
1.000280e+02
1.000277e+02
1.000275e+02
1.000272e+02
1.000269e+02
1.000267e+02
1.000264e+02
1.000262e+02
1.000259e+02
1.000256e+02
1.000254e+02
1.000251e+02
1.000248e+02
1.000246e+02
1.000243e+02
1.000241e+02
1.000238e+02
1.000235e+02
1.000233e+02
1.000230e+02
1.000228e+02
1.000225e+02
1.000222e+02
1.000220e+02
1.000217e+02
1.000215e+02
1.000212e+02
1.000209e+02
1.000207e+02
1.000204e+02
1.000202e+02
1.000199e+02
1.000196e+02
1.000194e+02
1.000191e+02
1.000189e+02
1.000186e+02
1.000183e+02
1.000181e+02
1.000178e+02
1.000176e+02
1.000173e+02
1.000170e+02
1.000168e+02
1.000165e+02
1.000163e+02
1.000160e+02
1.000157e+02
1.000155e+02
1.000152e+02
1.000150e+02
1.000147e+02
1.000144e+02
1.000142e+02
1.000139e+02
1.000136e+02
1.000134e+02
1.000265e+02
1.000262e+02
1.000260e+02
1.000257e+02
1.000255e+02
1.000252e+02
1.000249e+02
1.000247e+02
1.000244e+02
1.000242e+02
1.000239e+02
1.000236e+02
1.000234e+02
1.000231e+02
1.000229e+02
1.000226e+02
1.000223e+02
1.000221e+02
1.000218e+02
1.000215e+02
1.000213e+02
1.000210e+02
1.000208e+02
1.000205e+02
1.000202e+02
1.000200e+02
1.000197e+02
1.000195e+02
1.000192e+02
1.000189e+02
1.000187e+02
1.000184e+02
1.000182e+02
1.000179e+02
1.000176e+02
1.000174e+02
1.000171e+02
1.000169e+02
1.000166e+02
1.000163e+02
1.000161e+02
1.000158e+02
1.000156e+02
1.000153e+02
1.000150e+02
1.000148e+02
1.000145e+02
1.000143e+02
1.000140e+02
1.000137e+02
1.000135e+02
1.000132e+02
1.000130e+02
1.000127e+02
1.000124e+02
1.000122e+02
1.000119e+02
1.000250e+02
1.000248e+02
1.000245e+02
1.000242e+02
1.000240e+02
1.000237e+02
1.000235e+02
1.000232e+02
1.000229e+02
1.000227e+02
1.000224e+02
1.000222e+02
1.000219e+02
1.000216e+02
1.000214e+02
1.000211e+02
1.000209e+02
1.000206e+02
1.000203e+02
1.000201e+02
1.000198e+02
1.000195e+02
1.000193e+02
1.000190e+02
1.000188e+02
1.000185e+02
1.000182e+02
1.000180e+02
1.000177e+02
1.000175e+02
1.000172e+02
1.000169e+02
1.000167e+02
1.000164e+02
1.000162e+02
1.000159e+02
1.000156e+02
1.000154e+02
1.000151e+02
1.000149e+02
1.000146e+02
1.000143e+02
1.000141e+02
1.000138e+02
1.000136e+02
1.000133e+02
1.000130e+02
1.000128e+02
1.000125e+02
1.000123e+02
1.000120e+02
1.000117e+02
1.000115e+02
1.000112e+02
1.000110e+02
1.000107e+02
1.000104e+02
1.000235e+02
1.000233e+02
1.000230e+02
1.000228e+02
1.000225e+02
1.000222e+02
1.000220e+02
1.000217e+02
1.000215e+02
1.000212e+02
1.000209e+02
1.000207e+02
1.000204e+02
1.000202e+02
1.000199e+02
1.000196e+02
1.000194e+02
1.000191e+02
1.000189e+02
1.000186e+02
1.000183e+02
1.000181e+02
1.000178e+02
1.000176e+02
1.000173e+02
1.000170e+02
1.000168e+02
1.000165e+02
1.000162e+02
1.000160e+02
1.000157e+02
1.000155e+02
1.000152e+02
1.000149e+02
1.000147e+02
1.000144e+02
1.000142e+02
1.000139e+02
1.000136e+02
1.000134e+02
1.000131e+02
1.000129e+02
1.000126e+02
1.000123e+02
1.000121e+02
1.000118e+02
1.000116e+02
1.000113e+02
1.000110e+02
1.000108e+02
1.000105e+02
1.000103e+02
1.000100e+02
1.000097e+02
1.000095e+02
1.000092e+02
1.000090e+02
1.000221e+02
1.000218e+02
1.000215e+02
1.000213e+02
1.000210e+02
1.000208e+02
1.000205e+02
1.000202e+02
1.000200e+02
1.000197e+02
1.000195e+02
1.000192e+02
1.000189e+02
1.000187e+02
1.000184e+02
1.000182e+02
1.000179e+02
1.000176e+02
1.000174e+02
1.000171e+02
1.000169e+02
1.000166e+02
1.000163e+02
1.000161e+02
1.000158e+02
1.000156e+02
1.000153e+02
1.000150e+02
1.000148e+02
1.000145e+02
1.000143e+02
1.000140e+02
1.000137e+02
1.000135e+02
1.000132e+02
1.000129e+02
1.000127e+02
1.000124e+02
1.000122e+02
1.000119e+02
1.000116e+02
1.000114e+02
1.000111e+02
1.000109e+02
1.000106e+02
1.000103e+02
1.000101e+02
1.000098e+02
1.000096e+02
1.000093e+02
1.000090e+02
1.000088e+02
1.000085e+02
1.000083e+02
1.000080e+02
1.000077e+02
1.000075e+02
1.000206e+02
1.000203e+02
1.000201e+02
1.000198e+02
1.000195e+02
1.000193e+02
1.000190e+02
1.000188e+02
1.000185e+02
1.000182e+02
1.000180e+02
1.000177e+02
1.000175e+02
1.000172e+02
1.000169e+02
1.000167e+02
1.000164e+02
1.000162e+02
1.000159e+02
1.000156e+02
1.000154e+02
1.000151e+02
1.000149e+02
1.000146e+02
1.000143e+02
1.000141e+02
1.000138e+02
1.000136e+02
1.000133e+02
1.000130e+02
1.000128e+02
1.000125e+02
1.000123e+02
1.000120e+02
1.000117e+02
1.000115e+02
1.000112e+02
1.000110e+02
1.000107e+02
1.000104e+02
1.000102e+02
1.000099e+02
1.000096e+02
1.000094e+02
1.000091e+02
1.000089e+02
1.000086e+02
1.000083e+02
1.000081e+02
1.000078e+02
1.000076e+02
1.000073e+02
1.000070e+02
1.000068e+02
1.000065e+02
1.000063e+02
1.000060e+02
1.000191e+02
1.000189e+02
1.000186e+02
1.000183e+02
1.000181e+02
1.000178e+02
1.000175e+02
1.000173e+02
1.000170e+02
1.000168e+02
1.000165e+02
1.000162e+02
1.000160e+02
1.000157e+02
1.000155e+02
1.000152e+02
1.000149e+02
1.000147e+02
1.000144e+02
1.000142e+02
1.000139e+02
1.000136e+02
1.000134e+02
1.000131e+02
1.000129e+02
1.000126e+02
1.000123e+02
1.000121e+02
1.000118e+02
1.000116e+02
1.000113e+02
1.000110e+02
1.000108e+02
1.000105e+02
1.000103e+02
1.000100e+02
1.000097e+02
1.000095e+02
1.000092e+02
1.000090e+02
1.000087e+02
1.000084e+02
1.000082e+02
1.000079e+02
1.000077e+02
1.000074e+02
1.000071e+02
1.000069e+02
1.000066e+02
1.000063e+02
1.000061e+02
1.000058e+02
1.000056e+02
1.000053e+02
1.000050e+02
1.000048e+02
1.000045e+02
1.000176e+02
1.000174e+02
1.000171e+02
1.000169e+02
1.000166e+02
1.000163e+02
1.000161e+02
1.000158e+02
1.000155e+02
1.000153e+02
1.000150e+02
1.000148e+02
1.000145e+02
1.000142e+02
1.000140e+02
1.000137e+02
1.000135e+02
1.000132e+02
1.000129e+02
1.000127e+02
1.000124e+02
1.000122e+02
1.000119e+02
1.000116e+02
1.000114e+02
1.000111e+02
1.000109e+02
1.000106e+02
1.000103e+02
1.000101e+02
1.000098e+02
1.000096e+02
1.000093e+02
1.000090e+02
1.000088e+02
1.000085e+02
1.000083e+02
1.000080e+02
1.000077e+02
1.000075e+02
1.000072e+02
1.000070e+02
1.000067e+02
1.000064e+02
1.000062e+02
1.000059e+02
1.000057e+02
1.000054e+02
1.000051e+02
1.000049e+02
1.000046e+02
1.000043e+02
1.000041e+02
1.000038e+02
1.000036e+02
1.000033e+02
1.000030e+02
1.000162e+02
1.000159e+02
1.000156e+02
1.000154e+02
1.000151e+02
1.000149e+02
1.000146e+02
1.000143e+02
1.000141e+02
1.000138e+02
1.000136e+02
1.000133e+02
1.000130e+02
1.000128e+02
1.000125e+02
1.000122e+02
1.000120e+02
1.000117e+02
1.000115e+02
1.000112e+02
1.000109e+02
1.000107e+02
1.000104e+02
1.000102e+02
1.000099e+02
1.000096e+02
1.000094e+02
1.000091e+02
1.000089e+02
1.000086e+02
1.000083e+02
1.000081e+02
1.000078e+02
1.000076e+02
1.000073e+02
1.000070e+02
1.000068e+02
1.000065e+02
1.000063e+02
1.000060e+02
1.000057e+02
1.000055e+02
1.000052e+02
1.000050e+02
1.000047e+02
1.000044e+02
1.000042e+02
1.000039e+02
1.000037e+02
1.000034e+02
1.000031e+02
1.000029e+02
1.000026e+02
1.000024e+02
1.000021e+02
1.000018e+02
1.000016e+02
1.000147e+02
1.000144e+02
1.000142e+02
1.000139e+02
1.000136e+02
1.000134e+02
1.000131e+02
1.000129e+02
1.000126e+02
1.000123e+02
1.000121e+02
1.000118e+02
1.000116e+02
1.000113e+02
1.000110e+02
1.000108e+02
1.000105e+02
1.000103e+02
1.000100e+02
1.000097e+02
1.000095e+02
1.000092e+02
1.000089e+02
1.000087e+02
1.000084e+02
1.000082e+02
1.000079e+02
1.000076e+02
1.000074e+02
1.000071e+02
1.000069e+02
1.000066e+02
1.000063e+02
1.000061e+02
1.000058e+02
1.000056e+02
1.000053e+02
1.000050e+02
1.000048e+02
1.000045e+02
1.000043e+02
1.000040e+02
1.000037e+02
1.000035e+02
1.000032e+02
1.000030e+02
1.000027e+02
1.000024e+02
1.000022e+02
1.000019e+02
1.000017e+02
1.000014e+02
1.000011e+02
1.000009e+02
1.000006e+02
1.000004e+02
1.000001e+02
1.000132e+02
1.000129e+02
1.000127e+02
1.000124e+02
1.000122e+02
1.000119e+02
1.000116e+02
1.000114e+02
1.000111e+02
1.000109e+02
1.000106e+02
1.000103e+02
1.000101e+02
1.000098e+02
1.000096e+02
1.000093e+02
1.000090e+02
1.000088e+02
1.000085e+02
1.000083e+02
1.000080e+02
1.000077e+02
1.000075e+02
1.000072e+02
1.000070e+02
1.000067e+02
1.000064e+02
1.000062e+02
1.000059e+02
1.000056e+02
1.000054e+02
1.000051e+02
1.000049e+02
1.000046e+02
1.000043e+02
1.000041e+02
1.000038e+02
1.000036e+02
1.000033e+02
1.000030e+02
1.000028e+02
1.000025e+02
1.000023e+02
1.000020e+02
1.000017e+02
1.000015e+02
1.000012e+02
1.000010e+02
1.000007e+02
1.000004e+02
1.000002e+02
9.999992e+01
9.999966e+01
9.999940e+01
9.999914e+01
9.999888e+01
9.999862e+01
1.000117e+02
1.000115e+02
1.000112e+02
1.000109e+02
1.000107e+02
1.000104e+02
1.000102e+02
1.000099e+02
1.000096e+02
1.000094e+02
1.000091e+02
1.000089e+02
1.000086e+02
1.000083e+02
1.000081e+02
1.000078e+02
1.000076e+02
1.000073e+02
1.000070e+02
1.000068e+02
1.000065e+02
1.000063e+02
1.000060e+02
1.000057e+02
1.000055e+02
1.000052e+02
1.000050e+02
1.000047e+02
1.000044e+02
1.000042e+02
1.000039e+02
1.000037e+02
1.000034e+02
1.000031e+02
1.000029e+02
1.000026e+02
1.000023e+02
1.000021e+02
1.000018e+02
1.000016e+02
1.000013e+02
1.000010e+02
1.000008e+02
1.000005e+02
1.000003e+02
1.000000e+02
9.999974e+01
9.999948e+01
9.999922e+01
9.999896e+01
9.999870e+01
9.999844e+01
9.999818e+01
9.999792e+01
9.999766e+01
9.999740e+01
9.999714e+01
1.000102e+02
1.000100e+02
1.000097e+02
1.000095e+02
1.000092e+02
1.000089e+02
1.000087e+02
1.000084e+02
1.000082e+02
1.000079e+02
1.000076e+02
1.000074e+02
1.000071e+02
1.000069e+02
1.000066e+02
1.000063e+02
1.000061e+02
1.000058e+02
1.000056e+02
1.000053e+02
1.000050e+02
1.000048e+02
1.000045e+02
1.000043e+02
1.000040e+02
1.000037e+02
1.000035e+02
1.000032e+02
1.000030e+02
1.000027e+02
1.000024e+02
1.000022e+02
1.000019e+02
1.000017e+02
1.000014e+02
1.000011e+02
1.000009e+02
1.000006e+02
1.000003e+02
1.000001e+02
9.999983e+01
9.999957e+01
9.999931e+01
9.999905e+01
9.999879e+01
9.999853e+01
9.999827e+01
9.999801e+01
9.999774e+01
9.999748e+01
9.999722e+01
9.999696e+01
9.999670e+01
9.999644e+01
9.999618e+01
9.999592e+01
9.999566e+01
1.000088e+02
1.000085e+02
1.000082e+02
1.000080e+02
1.000077e+02
1.000075e+02
1.000072e+02
1.000069e+02
1.000067e+02
1.000064e+02
1.000062e+02
1.000059e+02
1.000056e+02
1.000054e+02
1.000051e+02
1.000049e+02
1.000046e+02
1.000043e+02
1.000041e+02
1.000038e+02
1.000036e+02
1.000033e+02
1.000030e+02
1.000028e+02
1.000025e+02
1.000023e+02
1.000020e+02
1.000017e+02
1.000015e+02
1.000012e+02
1.000010e+02
1.000007e+02
1.000004e+02
1.000002e+02
9.999991e+01
9.999965e+01
9.999939e+01
9.999913e+01
9.999887e+01
9.999861e+01
9.999835e+01
9.999809e+01
9.999783e+01
9.999757e+01
9.999731e+01
9.999705e+01
9.999679e+01
9.999653e+01
9.999627e+01
9.999601e+01
9.999575e+01
9.999549e+01
9.999523e+01
9.999497e+01
9.999470e+01
9.999444e+01
9.999418e+01
1.000073e+02
1.000070e+02
1.000068e+02
1.000065e+02
1.000063e+02
1.000060e+02
1.000057e+02
1.000055e+02
1.000052e+02
1.000049e+02
1.000047e+02
1.000044e+02
1.000042e+02
1.000039e+02
1.000036e+02
1.000034e+02
1.000031e+02
1.000029e+02
1.000026e+02
1.000023e+02
1.000021e+02
1.000018e+02
1.000016e+02
1.000013e+02
1.000010e+02
1.000008e+02
1.000005e+02
1.000003e+02
1.000000e+02
9.999974e+01
9.999948e+01
9.999922e+01
9.999896e+01
9.999870e+01
9.999844e+01
9.999818e+01
9.999792e+01
9.999766e+01
9.999740e+01
9.999713e+01
9.999687e+01
9.999661e+01
9.999635e+01
9.999609e+01
9.999583e+01
9.999557e+01
9.999531e+01
9.999505e+01
9.999479e+01
9.999453e+01
9.999427e+01
9.999401e+01
9.999375e+01
9.999349e+01
9.999323e+01
9.999297e+01
9.999271e+01
1.000058e+02
1.000056e+02
1.000053e+02
1.000050e+02
1.000048e+02
1.000045e+02
1.000043e+02
1.000040e+02
1.000037e+02
1.000035e+02
1.000032e+02
1.000030e+02
1.000027e+02
1.000024e+02
1.000022e+02
1.000019e+02
1.000016e+02
1.000014e+02
1.000011e+02
1.000009e+02
1.000006e+02
1.000003e+02
1.000001e+02
9.999983e+01
9.999956e+01
9.999930e+01
9.999904e+01
9.999878e+01
9.999852e+01
9.999826e+01
9.999800e+01
9.999774e+01
9.999748e+01
9.999722e+01
9.999696e+01
9.999670e+01
9.999644e+01
9.999618e+01
9.999592e+01
9.999566e+01
9.999540e+01
9.999514e+01
9.999488e+01
9.999462e+01
9.999436e+01
9.999409e+01
9.999383e+01
9.999357e+01
9.999331e+01
9.999305e+01
9.999279e+01
9.999253e+01
9.999227e+01
9.999201e+01
9.999175e+01
9.999149e+01
9.999123e+01
1.000043e+02
1.000041e+02
1.000038e+02
1.000036e+02
1.000033e+02
1.000030e+02
1.000028e+02
1.000025e+02
1.000023e+02
1.000020e+02
1.000017e+02
1.000015e+02
1.000012e+02
1.000010e+02
1.000007e+02
1.000004e+02
1.000002e+02
9.999991e+01
9.999965e+01
9.999939e+01
9.999913e+01
9.999887e+01
9.999861e+01
9.999835e+01
9.999809e+01
9.999783e+01
9.999757e+01
9.999731e+01
9.999705e+01
9.999679e+01
9.999652e+01
9.999626e+01
9.999600e+01
9.999574e+01
9.999548e+01
9.999522e+01
9.999496e+01
9.999470e+01
9.999444e+01
9.999418e+01
9.999392e+01
9.999366e+01
9.999340e+01
9.999314e+01
9.999288e+01
9.999262e+01
9.999236e+01
9.999210e+01
9.999184e+01
9.999158e+01
9.999132e+01
9.999105e+01
9.999079e+01
9.999053e+01
9.999027e+01
9.999001e+01
9.998975e+01
1.000029e+02
1.000026e+02
1.000023e+02
1.000021e+02
1.000018e+02
1.000016e+02
1.000013e+02
1.000010e+02
1.000008e+02
1.000005e+02
1.000003e+02
1.000000e+02
9.999974e+01
9.999948e+01
9.999921e+01
9.999895e+01
9.999869e+01
9.999843e+01
9.999817e+01
9.999791e+01
9.999765e+01
9.999739e+01
9.999713e+01
9.999687e+01
9.999661e+01
9.999635e+01
9.999609e+01
9.999583e+01
9.999557e+01
9.999531e+01
9.999505e+01
9.999479e+01
9.999453e+01
9.999427e+01
9.999401e+01
9.999375e+01
9.999348e+01
9.999322e+01
9.999296e+01
9.999270e+01
9.999244e+01
9.999218e+01
9.999192e+01
9.999166e+01
9.999140e+01
9.999114e+01
9.999088e+01
9.999062e+01
9.999036e+01
9.999010e+01
9.998984e+01
9.998958e+01
9.998932e+01
9.998906e+01
9.998880e+01
9.998854e+01
9.998828e+01
1.000014e+02
1.000011e+02
1.000009e+02
1.000006e+02
1.000003e+02
1.000001e+02
9.999982e+01
9.999956e+01
9.999930e+01
9.999904e+01
9.999878e+01
9.999852e+01
9.999826e+01
9.999800e+01
9.999774e+01
9.999748e+01
9.999722e+01
9.999696e+01
9.999670e+01
9.999644e+01
9.999617e+01
9.999591e+01
9.999565e+01
9.999539e+01
9.999513e+01
9.999487e+01
9.999461e+01
9.999435e+01
9.999409e+01
9.999383e+01
9.999357e+01
9.999331e+01
9.999305e+01
9.999279e+01
9.999253e+01
9.999227e+01
9.999201e+01
9.999175e+01
9.999149e+01
9.999123e+01
9.999097e+01
9.999071e+01
9.999044e+01
9.999018e+01
9.998992e+01
9.998966e+01
9.998940e+01
9.998914e+01
9.998888e+01
9.998862e+01
9.998836e+01
9.998810e+01
9.998784e+01
9.998758e+01
9.998732e+01
9.998706e+01
9.998680e+01
9.999991e+01
9.999965e+01
9.999939e+01
9.999913e+01
9.999887e+01
9.999860e+01
9.999834e+01
9.999808e+01
9.999782e+01
9.999756e+01
9.999730e+01
9.999704e+01
9.999678e+01
9.999652e+01
9.999626e+01
9.999600e+01
9.999574e+01
9.999548e+01
9.999522e+01
9.999496e+01
9.999470e+01
9.999444e+01
9.999418e+01
9.999392e+01
9.999366e+01
9.999340e+01
9.999313e+01
9.999287e+01
9.999261e+01
9.999235e+01
9.999209e+01
9.999183e+01
9.999157e+01
9.999131e+01
9.999105e+01
9.999079e+01
9.999053e+01
9.999027e+01
9.999001e+01
9.998975e+01
9.998949e+01
9.998923e+01
9.998897e+01
9.998871e+01
9.998845e+01
9.998819e+01
9.998793e+01
9.998766e+01
9.998740e+01
9.998714e+01
9.998688e+01
9.998662e+01
9.998636e+01
9.998610e+01
9.998584e+01
9.998558e+01
9.998532e+01
9.999843e+01
9.999817e+01
9.999791e+01
9.999765e+01
9.999739e+01
9.999713e+01
9.999687e+01
9.999661e+01
9.999635e+01
9.999609e+01
9.999583e+01
9.999556e+01
9.999530e+01
9.999504e+01
9.999478e+01
9.999452e+01
9.999426e+01
9.999400e+01
9.999374e+01
9.999348e+01
9.999322e+01
9.999296e+01
9.999270e+01
9.999244e+01
9.999218e+01
9.999192e+01
9.999166e+01
9.999140e+01
9.999114e+01
9.999088e+01
9.999062e+01
9.999036e+01
9.999009e+01
9.998983e+01
9.998957e+01
9.998931e+01
9.998905e+01
9.998879e+01
9.998853e+01
9.998827e+01
9.998801e+01
9.998775e+01
9.998749e+01
9.998723e+01
9.998697e+01
9.998671e+01
9.998645e+01
9.998619e+01
9.998593e+01
9.998567e+01
9.998541e+01
9.998515e+01
9.998489e+01
9.998462e+01
9.998436e+01
9.998410e+01
9.998384e+01
9.999695e+01
9.999669e+01
9.999643e+01
9.999617e+01
9.999591e+01
9.999565e+01
9.999539e+01
9.999513e+01
9.999487e+01
9.999461e+01
9.999435e+01
9.999409e+01
9.999383e+01
9.999357e+01
9.999331e+01
9.999305e+01
9.999279e+01
9.999252e+01
9.999226e+01
9.999200e+01
9.999174e+01
9.999148e+01
9.999122e+01
9.999096e+01
9.999070e+01
9.999044e+01
9.999018e+01
9.998992e+01
9.998966e+01
9.998940e+01
9.998914e+01
9.998888e+01
9.998862e+01
9.998836e+01
9.998810e+01
9.998784e+01
9.998758e+01
9.998732e+01
9.998705e+01
9.998679e+01
9.998653e+01
9.998627e+01
9.998601e+01
9.998575e+01
9.998549e+01
9.998523e+01
9.998497e+01
9.998471e+01
9.998445e+01
9.998419e+01
9.998393e+01
9.998367e+01
9.998341e+01
9.998315e+01
9.998289e+01
9.998263e+01
9.998237e+01
9.999548e+01
9.999522e+01
9.999495e+01
9.999469e+01
9.999443e+01
9.999417e+01
9.999391e+01
9.999365e+01
9.999339e+01
9.999313e+01
9.999287e+01
9.999261e+01
9.999235e+01
9.999209e+01
9.999183e+01
9.999157e+01
9.999131e+01
9.999105e+01
9.999079e+01
9.999053e+01
9.999027e+01
9.999001e+01
9.998975e+01
9.998948e+01
9.998922e+01
9.998896e+01
9.998870e+01
9.998844e+01
9.998818e+01
9.998792e+01
9.998766e+01
9.998740e+01
9.998714e+01
9.998688e+01
9.998662e+01
9.998636e+01
9.998610e+01
9.998584e+01
9.998558e+01
9.998532e+01
9.998506e+01
9.998480e+01
9.998454e+01
9.998428e+01
9.998401e+01
9.998375e+01
9.998349e+01
9.998323e+01
9.998297e+01
9.998271e+01
9.998245e+01
9.998219e+01
9.998193e+01
9.998167e+01
9.998141e+01
9.998115e+01
9.998089e+01
9.999400e+01
9.999374e+01
9.999348e+01
9.999322e+01
9.999296e+01
9.999270e+01
9.999244e+01
9.999218e+01
9.999191e+01
9.999165e+01
9.999139e+01
9.999113e+01
9.999087e+01
9.999061e+01
9.999035e+01
9.999009e+01
9.998983e+01
9.998957e+01
9.998931e+01
9.998905e+01
9.998879e+01
9.998853e+01
9.998827e+01
9.998801e+01
9.998775e+01
9.998749e+01
9.998723e+01
9.998697e+01
9.998671e+01
9.998644e+01
9.998618e+01
9.998592e+01
9.998566e+01
9.998540e+01
9.998514e+01
9.998488e+01
9.998462e+01
9.998436e+01
9.998410e+01
9.998384e+01
9.998358e+01
9.998332e+01
9.998306e+01
9.998280e+01
9.998254e+01
9.998228e+01
9.998202e+01
9.998176e+01
9.998150e+01
9.998124e+01
9.998097e+01
9.998071e+01
9.998045e+01
9.998019e+01
9.997993e+01
9.997967e+01
9.997941e+01
9.999252e+01
9.999226e+01
9.999200e+01
9.999174e+01
9.999148e+01
9.999122e+01
9.999096e+01
9.999070e+01
9.999044e+01
9.999018e+01
9.998992e+01
9.998966e+01
9.998940e+01
9.998913e+01
9.998887e+01
9.998861e+01
9.998835e+01
9.998809e+01
9.998783e+01
9.998757e+01
9.998731e+01
9.998705e+01
9.998679e+01
9.998653e+01
9.998627e+01
9.998601e+01
9.998575e+01
9.998549e+01
9.998523e+01
9.998497e+01
9.998471e+01
9.998445e+01
9.998419e+01
9.998393e+01
9.998367e+01
9.998340e+01
9.998314e+01
9.998288e+01
9.998262e+01
9.998236e+01
9.998210e+01
9.998184e+01
9.998158e+01
9.998132e+01
9.998106e+01
9.998080e+01
9.998054e+01
9.998028e+01
9.998002e+01
9.997976e+01
9.997950e+01
9.997924e+01
9.997898e+01
9.997872e+01
9.997846e+01
9.997820e+01
9.997793e+01
9.999104e+01
9.999078e+01
9.999052e+01
9.999026e+01
9.999000e+01
9.998974e+01
9.998948e+01
9.998922e+01
9.998896e+01
9.998870e+01
9.998844e+01
9.998818e+01
9.998792e+01
9.998766e+01
9.998740e+01
9.998714e+01
9.998688e+01
9.998662e+01
9.998636e+01
9.998609e+01
9.998583e+01
9.998557e+01
9.998531e+01
9.998505e+01
9.998479e+01
9.998453e+01
9.998427e+01
9.998401e+01
9.998375e+01
9.998349e+01
9.998323e+01
9.998297e+01
9.998271e+01
9.998245e+01
9.998219e+01
9.998193e+01
9.998167e+01
9.998141e+01
9.998115e+01
9.998089e+01
9.998063e+01
9.998036e+01
9.998010e+01
9.997984e+01
9.997958e+01
9.997932e+01
9.997906e+01
9.997880e+01
9.997854e+01
9.997828e+01
9.997802e+01
9.997776e+01
9.997750e+01
9.997724e+01
9.997698e+01
9.997672e+01
9.997646e+01
9.998957e+01
9.998931e+01
9.998905e+01
9.998879e+01
9.998852e+01
9.998826e+01
9.998800e+01
9.998774e+01
9.998748e+01
9.998722e+01
9.998696e+01
9.998670e+01
9.998644e+01
9.998618e+01
9.998592e+01
9.998566e+01
9.998540e+01
9.998514e+01
9.998488e+01
9.998462e+01
9.998436e+01
9.998410e+01
9.998384e+01
9.998358e+01
9.998332e+01
9.998305e+01
9.998279e+01
9.998253e+01
9.998227e+01
9.998201e+01
9.998175e+01
9.998149e+01
9.998123e+01
9.998097e+01
9.998071e+01
9.998045e+01
9.998019e+01
9.997993e+01
9.997967e+01
9.997941e+01
9.997915e+01
9.997889e+01
9.997863e+01
9.997837e+01
9.997811e+01
9.997785e+01
9.997758e+01
9.997732e+01
9.997706e+01
9.997680e+01
9.997654e+01
9.997628e+01
9.997602e+01
9.997576e+01
9.997550e+01
9.997524e+01
9.997498e+01
9.998809e+01
9.998783e+01
9.998757e+01
9.998731e+01
9.998705e+01
9.998679e+01
9.998653e+01
9.998627e+01
9.998601e+01
9.998575e+01
9.998548e+01
9.998522e+01
9.998496e+01
9.998470e+01
9.998444e+01
9.998418e+01
9.998392e+01
9.998366e+01
9.998340e+01
9.998314e+01
9.998288e+01
9.998262e+01
9.998236e+01
9.998210e+01
9.998184e+01
9.998158e+01
9.998132e+01
9.998106e+01
9.998080e+01
9.998054e+01
9.998028e+01
9.998001e+01
9.997975e+01
9.997949e+01
9.997923e+01
9.997897e+01
9.997871e+01
9.997845e+01
9.997819e+01
9.997793e+01
9.997767e+01
9.997741e+01
9.997715e+01
9.997689e+01
9.997663e+01
9.997637e+01
9.997611e+01
9.997585e+01
9.997559e+01
9.997533e+01
9.997507e+01
9.997481e+01
9.997454e+01
9.997428e+01
9.997402e+01
9.997376e+01
9.997350e+01
9.998661e+01
9.998635e+01
9.998609e+01
9.998583e+01
9.998557e+01
9.998531e+01
9.998505e+01
9.998479e+01
9.998453e+01
9.998427e+01
9.998401e+01
9.998375e+01
9.998349e+01
9.998323e+01
9.998297e+01
9.998271e+01
9.998244e+01
9.998218e+01
9.998192e+01
9.998166e+01
9.998140e+01
9.998114e+01
9.998088e+01
9.998062e+01
9.998036e+01
9.998010e+01
9.997984e+01
9.997958e+01
9.997932e+01
9.997906e+01
9.997880e+01
9.997854e+01
9.997828e+01
9.997802e+01
9.997776e+01
9.997750e+01
9.997724e+01
9.997697e+01
9.997671e+01
9.997645e+01
9.997619e+01
9.997593e+01
9.997567e+01
9.997541e+01
9.997515e+01
9.997489e+01
9.997463e+01
9.997437e+01
9.997411e+01
9.997385e+01
9.997359e+01
9.997333e+01
9.997307e+01
9.997281e+01
9.997255e+01
9.997229e+01
9.997203e+01
9.998514e+01
9.998487e+01
9.998461e+01
9.998435e+01
9.998409e+01
9.998383e+01
9.998357e+01
9.998331e+01
9.998305e+01
9.998279e+01
9.998253e+01
9.998227e+01
9.998201e+01
9.998175e+01
9.998149e+01
9.998123e+01
9.998097e+01
9.998071e+01
9.998045e+01
9.998019e+01
9.997993e+01
9.997967e+01
9.997940e+01
9.997914e+01
9.997888e+01
9.997862e+01
9.997836e+01
9.997810e+01
9.997784e+01
9.997758e+01
9.997732e+01
9.997706e+01
9.997680e+01
9.997654e+01
9.997628e+01
9.997602e+01
9.997576e+01
9.997550e+01
9.997524e+01
9.997498e+01
9.997472e+01
9.997446e+01
9.997420e+01
9.997393e+01
9.997367e+01
9.997341e+01
9.997315e+01
9.997289e+01
9.997263e+01
9.997237e+01
9.997211e+01
9.997185e+01
9.997159e+01
9.997133e+01
9.997107e+01
9.997081e+01
9.997055e+01
9.998366e+01
9.998340e+01
9.998314e+01
9.998288e+01
9.998262e+01
9.998236e+01
9.998210e+01
9.998183e+01
9.998157e+01
9.998131e+01
9.998105e+01
9.998079e+01
9.998053e+01
9.998027e+01
9.998001e+01
9.997975e+01
9.997949e+01
9.997923e+01
9.997897e+01
9.997871e+01
9.997845e+01
9.997819e+01
9.997793e+01
9.997767e+01
9.997741e+01
9.997715e+01
9.997689e+01
9.997663e+01
9.997636e+01
9.997610e+01
9.997584e+01
9.997558e+01
9.997532e+01
9.997506e+01
9.997480e+01
9.997454e+01
9.997428e+01
9.997402e+01
9.997376e+01
9.997350e+01
9.997324e+01
9.997298e+01
9.997272e+01
9.997246e+01
9.997220e+01
9.997194e+01
9.997168e+01
9.997142e+01
9.997116e+01
9.997089e+01
9.997063e+01
9.997037e+01
9.997011e+01
9.996985e+01
9.996959e+01
9.996933e+01
9.996907e+01
9.998218e+01
9.998192e+01
9.998166e+01
9.998140e+01
9.998114e+01
9.998088e+01
9.998062e+01
9.998036e+01
9.998010e+01
9.997984e+01
9.997958e+01
9.997932e+01
9.997905e+01
9.997879e+01
9.997853e+01
9.997827e+01
9.997801e+01
9.997775e+01
9.997749e+01
9.997723e+01
9.997697e+01
9.997671e+01
9.997645e+01
9.997619e+01
9.997593e+01
9.997567e+01
9.997541e+01
9.997515e+01
9.997489e+01
9.997463e+01
9.997437e+01
9.997411e+01
9.997385e+01
9.997359e+01
9.997332e+01
9.997306e+01
9.997280e+01
9.997254e+01
9.997228e+01
9.997202e+01
9.997176e+01
9.997150e+01
9.997124e+01
9.997098e+01
9.997072e+01
9.997046e+01
9.997020e+01
9.996994e+01
9.996968e+01
9.996942e+01
9.996916e+01
9.996890e+01
9.996864e+01
9.996838e+01
9.996812e+01
9.996785e+01
9.996759e+01
9.998070e+01
9.998044e+01
9.998018e+01
9.997992e+01
9.997966e+01
9.997940e+01
9.997914e+01
9.997888e+01
9.997862e+01
9.997836e+01
9.997810e+01
9.997784e+01
9.997758e+01
9.997732e+01
9.997706e+01
9.997680e+01
9.997654e+01
9.997628e+01
9.997601e+01
9.997575e+01
9.997549e+01
9.997523e+01
9.997497e+01
9.997471e+01
9.997445e+01
9.997419e+01
9.997393e+01
9.997367e+01
9.997341e+01
9.997315e+01
9.997289e+01
9.997263e+01
9.997237e+01
9.997211e+01
9.997185e+01
9.997159e+01
9.997133e+01
9.997107e+01
9.997081e+01
9.997054e+01
9.997028e+01
9.997002e+01
9.996976e+01
9.996950e+01
9.996924e+01
9.996898e+01
9.996872e+01
9.996846e+01
9.996820e+01
9.996794e+01
9.996768e+01
9.996742e+01
9.996716e+01
9.996690e+01
9.996664e+01
9.996638e+01
9.996612e+01
9.997923e+01
9.997897e+01
9.997871e+01
9.997844e+01
9.997818e+01
9.997792e+01
9.997766e+01
9.997740e+01
9.997714e+01
9.997688e+01
9.997662e+01
9.997636e+01
9.997610e+01
9.997584e+01
9.997558e+01
9.997532e+01
9.997506e+01
9.997480e+01
9.997454e+01
9.997428e+01
9.997402e+01
9.997376e+01
9.997350e+01
9.997324e+01
9.997297e+01
9.997271e+01
9.997245e+01
9.997219e+01
9.997193e+01
9.997167e+01
9.997141e+01
9.997115e+01
9.997089e+01
9.997063e+01
9.997037e+01
9.997011e+01
9.996985e+01
9.996959e+01
9.996933e+01
9.996907e+01
9.996881e+01
9.996855e+01
9.996829e+01
9.996803e+01
9.996777e+01
9.996750e+01
9.996724e+01
9.996698e+01
9.996672e+01
9.996646e+01
9.996620e+01
9.996594e+01
9.996568e+01
9.996542e+01
9.996516e+01
9.996490e+01
9.996464e+01
9.997775e+01
9.997749e+01
9.997723e+01
9.997697e+01
9.997671e+01
9.997645e+01
9.997619e+01
9.997593e+01
9.997567e+01
9.997540e+01
9.997514e+01
9.997488e+01
9.997462e+01
9.997436e+01
9.997410e+01
9.997384e+01
9.997358e+01
9.997332e+01
9.997306e+01
9.997280e+01
9.997254e+01
9.997228e+01
9.997202e+01
9.997176e+01
9.997150e+01
9.997124e+01
9.997098e+01
9.997072e+01
9.997046e+01
9.997020e+01
9.996993e+01
9.996967e+01
9.996941e+01
9.996915e+01
9.996889e+01
9.996863e+01
9.996837e+01
9.996811e+01
9.996785e+01
9.996759e+01
9.996733e+01
9.996707e+01
9.996681e+01
9.996655e+01
9.996629e+01
9.996603e+01
9.996577e+01
9.996551e+01
9.996525e+01
9.996499e+01
9.996473e+01
9.996446e+01
9.996420e+01
9.996394e+01
9.996368e+01
9.996342e+01
9.996316e+01
