# vtk DataFile Version 3.4
Image
ASCII
DATASET STRUCTURED_POINTS
DIMENSIONS 57 40 1
ORIGIN 0.000000 0.000000 0.000000
SPACING 1.000000 1.000000 1.000000
POINT_DATA 2280
SCALARS facies float 1
LOOKUP_TABLE default
1.016276e+02
1.015955e+02
1.015634e+02
1.015312e+02
1.014991e+02
1.014669e+02
1.014348e+02
1.014027e+02
1.013705e+02
1.013384e+02
1.013063e+02
1.012741e+02
1.012420e+02
1.012098e+02
1.011777e+02
1.011456e+02
1.011134e+02
1.010813e+02
1.010491e+02
1.010170e+02
1.009849e+02
1.009527e+02
1.009206e+02
1.008884e+02
1.008563e+02
1.008242e+02
1.007920e+02
1.007599e+02
1.007277e+02
1.006956e+02
1.006635e+02
1.006313e+02
1.005992e+02
1.005670e+02
1.005349e+02
1.005028e+02
1.004706e+02
1.004385e+02
1.004063e+02
1.003742e+02
1.003421e+02
1.003099e+02
1.002778e+02
1.002457e+02
1.002135e+02
1.001814e+02
1.001492e+02
1.001171e+02
1.000850e+02
1.000528e+02
1.000207e+02
9.998854e+01
9.995640e+01
9.992426e+01
9.989212e+01
9.985998e+01
9.982784e+01
1.015893e+02
1.015572e+02
1.015251e+02
1.014929e+02
1.014608e+02
1.014286e+02
1.013965e+02
1.013644e+02
1.013322e+02
1.013001e+02
1.012679e+02
1.012358e+02
1.012037e+02
1.011715e+02
1.011394e+02
1.011073e+02
1.010751e+02
1.010430e+02
1.010108e+02
1.009787e+02
1.009466e+02
1.009144e+02
1.008823e+02
1.008501e+02
1.008180e+02
1.007859e+02
1.007537e+02
1.007216e+02
1.006894e+02
1.006573e+02
1.006252e+02
1.005930e+02
1.005609e+02
1.005287e+02
1.004966e+02
1.004645e+02
1.004323e+02
1.004002e+02
1.003680e+02
1.003359e+02
1.003038e+02
1.002716e+02
1.002395e+02
1.002073e+02
1.001752e+02
1.001431e+02
1.001109e+02
1.000788e+02
1.000467e+02
1.000145e+02
9.998237e+01
9.995023e+01
9.991809e+01
9.988596e+01
9.985382e+01
9.982168e+01
9.978954e+01
1.015510e+02
1.015189e+02
1.014868e+02
1.014546e+02
1.014225e+02
1.013903e+02
1.013582e+02
1.013261e+02
1.012939e+02
1.012618e+02
1.012296e+02
1.011975e+02
1.011654e+02
1.011332e+02
1.011011e+02
1.010689e+02
1.010368e+02
1.010047e+02
1.009725e+02
1.009404e+02
1.009083e+02
1.008761e+02
1.008440e+02
1.008118e+02
1.007797e+02
1.007476e+02
1.007154e+02
1.006833e+02
1.006511e+02
1.006190e+02
1.005869e+02
1.005547e+02
1.005226e+02
1.004904e+02
1.004583e+02
1.004262e+02
1.003940e+02
1.003619e+02
1.003297e+02
1.002976e+02
1.002655e+02
1.002333e+02
1.002012e+02
1.001690e+02
1.001369e+02
1.001048e+02
1.000726e+02
1.000405e+02
1.000084e+02
9.997621e+01
9.994407e+01
9.991193e+01
9.987979e+01
9.984765e+01
9.981551e+01
9.978337e+01
9.975124e+01
1.015127e+02
1.014806e+02
1.014485e+02
1.014163e+02
1.013842e+02
1.013520e+02
1.013199e+02
1.012878e+02
1.012556e+02
1.012235e+02
1.011913e+02
1.011592e+02
1.011271e+02
1.010949e+02
1.010628e+02
1.010306e+02
1.009985e+02
1.009664e+02
1.009342e+02
1.009021e+02
1.008700e+02
1.008378e+02
1.008057e+02
1.007735e+02
1.007414e+02
1.007093e+02
1.006771e+02
1.006450e+02
1.006128e+02
1.005807e+02
1.005486e+02
1.005164e+02
1.004843e+02
1.004521e+02
1.004200e+02
1.003879e+02
1.003557e+02
1.003236e+02
1.002914e+02
1.002593e+02
1.002272e+02
1.001950e+02
1.001629e+02
1.001307e+02
1.000986e+02
1.000665e+02
1.000343e+02
1.000022e+02
9.997005e+01
9.993791e+01
9.990577e+01
9.987363e+01
9.984149e+01
9.980935e+01
9.977721e+01
9.974507e+01
9.971293e+01
1.014744e+02
1.014423e+02
1.014102e+02
1.013780e+02
1.013459e+02
1.013137e+02
1.012816e+02
1.012495e+02
1.012173e+02
1.011852e+02
1.011530e+02
1.011209e+02
1.010888e+02
1.010566e+02
1.010245e+02
1.009923e+02
1.009602e+02
1.009281e+02
1.008959e+02
1.008638e+02
1.008316e+02
1.007995e+02
1.007674e+02
1.007352e+02
1.007031e+02
1.006710e+02
1.006388e+02
1.006067e+02
1.005745e+02
1.005424e+02
1.005103e+02
1.004781e+02
1.004460e+02
1.004138e+02
1.003817e+02
1.003496e+02
1.003174e+02
1.002853e+02
1.002531e+02
1.002210e+02
1.001889e+02
1.001567e+02
1.001246e+02
1.000924e+02
1.000603e+02
1.000282e+02
9.999602e+01
9.996389e+01
9.993175e+01
9.989961e+01
9.986747e+01
9.983533e+01
9.980319e+01
9.977105e+01
9.973891e+01
9.970677e+01
9.967463e+01
1.014361e+02
1.014040e+02
1.013719e+02
1.013397e+02
1.013076e+02
1.012754e+02
1.012433e+02
1.012112e+02
1.011790e+02
1.011469e+02
1.011147e+02
1.010826e+02
1.010505e+02
1.010183e+02
1.009862e+02
1.009540e+02
1.009219e+02
1.008898e+02
1.008576e+02
1.008255e+02
1.007933e+02
1.007612e+02
1.007291e+02
1.006969e+02
1.006648e+02
1.006326e+02
1.006005e+02
1.005684e+02
1.005362e+02
1.005041e+02
1.004720e+02
1.004398e+02
1.004077e+02
1.003755e+02
1.003434e+02
1.003113e+02
1.002791e+02
1.002470e+02
1.002148e+02
1.001827e+02
1.001506e+02
1.001184e+02
1.000863e+02
1.000541e+02
1.000220e+02
9.998986e+01
9.995772e+01
9.992558e+01
9.989344e+01
9.986130e+01
9.982916e+01
9.979703e+01
9.976489e+01
9.973275e+01
9.970061e+01
9.966847e+01
9.963633e+01
1.013978e+02
1.013657e+02
1.013336e+02
1.013014e+02
1.012693e+02
1.012371e+02
1.012050e+02
1.011729e+02
1.011407e+02
1.011086e+02
1.010764e+02
1.010443e+02
1.010122e+02
1.009800e+02
1.009479e+02
1.009157e+02
1.008836e+02
1.008515e+02
1.008193e+02
1.007872e+02
1.007550e+02
1.007229e+02
1.006908e+02
1.006586e+02
1.006265e+02
1.005943e+02
1.005622e+02
1.005301e+02
1.004979e+02
1.004658e+02
1.004337e+02
1.004015e+02
1.003694e+02
1.003372e+02
1.003051e+02
1.002730e+02
1.002408e+02
1.002087e+02
1.001765e+02
1.001444e+02
1.001123e+02
1.000801e+02
1.000480e+02
1.000158e+02
9.998370e+01
9.995156e+01
9.991942e+01
9.988728e+01
9.985514e+01
9.982300e+01
9.979086e+01
9.975872e+01
9.972658e+01
9.969444e+01
9.966230e+01
9.963017e+01
9.959803e+01
1.013595e+02
1.013274e+02
1.012953e+02
1.012631e+02
1.012310e+02
1.011988e+02
1.011667e+02
1.011346e+02
1.011024e+02
1.010703e+02
1.010381e+02
1.010060e+02
1.009739e+02
1.009417e+02
1.009096e+02
1.008774e+02
1.008453e+02
1.008132e+02
1.007810e+02
1.007489e+02
1.007167e+02
1.006846e+02
1.006525e+02
1.006203e+02
1.005882e+02
1.005560e+02
1.005239e+02
1.004918e+02
1.004596e+02
1.004275e+02
1.003953e+02
1.003632e+02
1.003311e+02
1.002989e+02
1.002668e+02
1.002347e+02
1.002025e+02
1.001704e+02
1.001382e+02
1.001061e+02
1.000740e+02
1.000418e+02
1.000097e+02
9.997754e+01
9.994540e+01
9.991326e+01
9.988112e+01
9.984898e+01
9.981684e+01
9.978470e+01
9.975256e+01
9.972042e+01
9.968828e+01
9.965614e+01
9.962400e+01
9.959186e+01
9.955972e+01
1.013212e+02
1.012891e+02
1.012569e+02
1.012248e+02
1.011927e+02
1.011605e+02
1.011284e+02
1.010963e+02
1.010641e+02
1.010320e+02
1.009998e+02
1.009677e+02
1.009356e+02
1.009034e+02
1.008713e+02
1.008391e+02
1.008070e+02
1.007749e+02
1.007427e+02
1.007106e+02
1.006784e+02
1.006463e+02
1.006142e+02
1.005820e+02
1.005499e+02
1.005177e+02
1.004856e+02
1.004535e+02
1.004213e+02
1.003892e+02
1.003570e+02
1.003249e+02
1.002928e+02
1.002606e+02
1.002285e+02
1.001963e+02
1.001642e+02
1.001321e+02
1.000999e+02
1.000678e+02
1.000357e+02
1.000035e+02
9.997137e+01
9.993923e+01
9.990709e+01
9.987495e+01
9.984282e+01
9.981068e+01
9.977854e+01
9.974640e+01
9.971426e+01
9.968212e+01
9.964998e+01
9.961784e+01
9.958570e+01
9.955356e+01
9.952142e+01
1.012829e+02
1.012508e+02
1.012186e+02
1.011865e+02
1.011544e+02
1.011222e+02
1.010901e+02
1.010579e+02
1.010258e+02
1.009937e+02
1.009615e+02
1.009294e+02
1.008973e+02
1.008651e+02
1.008330e+02
1.008008e+02
1.007687e+02
1.007366e+02
1.007044e+02
1.006723e+02
1.006401e+02
1.006080e+02
1.005759e+02
1.005437e+02
1.005116e+02
1.004794e+02
1.004473e+02
1.004152e+02
1.003830e+02
1.003509e+02
1.003187e+02
1.002866e+02
1.002545e+02
1.002223e+02
1.001902e+02
1.001580e+02
1.001259e+02
1.000938e+02
1.000616e+02
1.000295e+02
9.999735e+01
9.996521e+01
9.993307e+01
9.990093e+01
9.986879e+01
9.983665e+01
9.980451e+01
9.977237e+01
9.974023e+01
9.970810e+01
9.967596e+01
9.964382e+01
9.961168e+01
9.957954e+01
9.954740e+01
9.951526e+01
9.948312e+01
1.012446e+02
1.012125e+02
1.011803e+02
1.011482e+02
1.011161e+02
1.010839e+02
1.010518e+02
1.010196e+02
1.009875e+02
1.009554e+02
1.009232e+02
1.008911e+02
1.008590e+02
1.008268e+02
1.007947e+02
1.007625e+02
1.007304e+02
1.006983e+02
1.006661e+02
1.006340e+02
1.006018e+02
1.005697e+02
1.005376e+02
1.005054e+02
1.004733e+02
1.004411e+02
1.004090e+02
1.003769e+02
1.003447e+02
1.003126e+02
1.002804e+02
1.002483e+02
1.002162e+02
1.001840e+02
1.001519e+02
1.001197e+02
1.000876e+02
1.000555e+02
1.000233e+02
9.999119e+01
9.995905e+01
9.992691e+01
9.989477e+01
9.986263e+01
9.983049e+01
9.979835e+01
9.976621e+01
9.973407e+01
9.970193e+01
9.966979e+01
9.963765e+01
9.960551e+01
9.957337e+01
9.954124e+01
9.950910e+01
9.947696e+01
9.944482e+01
1.012063e+02
1.011742e+02
1.011420e+02
1.011099e+02
1.010778e+02
1.010456e+02
1.010135e+02
1.009813e+02
1.009492e+02
1.009171e+02
1.008849e+02
1.008528e+02
1.008206e+02
1.007885e+02
1.007564e+02
1.007242e+02
1.006921e+02
1.006600e+02
1.006278e+02
1.005957e+02
1.005635e+02
1.005314e+02
1.004993e+02
1.004671e+02
1.004350e+02
1.004028e+02
1.003707e+02
1.003386e+02
1.003064e+02
1.002743e+02
1.002421e+02
1.002100e+02
1.001779e+02
1.001457e+02
1.001136e+02
1.000814e+02
1.000493e+02
1.000172e+02
9.998502e+01
9.995288e+01
9.992075e+01
9.988861e+01
9.985647e+01
9.982433e+01
9.979219e+01
9.976005e+01
9.972791e+01
9.969577e+01
9.966363e+01
9.963149e+01
9.959935e+01
9.956721e+01
9.953507e+01
9.950293e+01
9.947079e+01
9.943865e+01
9.940652e+01
1.011680e+02
1.011359e+02
1.011037e+02
1.010716e+02
1.010395e+02
1.010073e+02
1.009752e+02
1.009430e+02
1.009109e+02
1.008788e+02
1.008466e+02
1.008145e+02
1.007823e+02
1.007502e+02
1.007181e+02
1.006859e+02
1.006538e+02
1.006216e+02
1.005895e+02
1.005574e+02
1.005252e+02
1.004931e+02
1.004610e+02
1.004288e+02
1.003967e+02
1.003645e+02
1.003324e+02
1.003003e+02
1.002681e+02
1.002360e+02
1.002038e+02
1.001717e+02
1.001396e+02
1.001074e+02
1.000753e+02
1.000431e+02
1.000110e+02
9.997886e+01
9.994672e+01
9.991458e+01
9.988244e+01
9.985030e+01
9.981816e+01
9.978602e+01
9.975389e+01
9.972175e+01
9.968961e+01
9.965747e+01
9.962533e+01
9.959319e+01
9.956105e+01
9.952891e+01
9.949677e+01
9.946463e+01
9.943249e+01
9.940035e+01
9.936821e+01
1.011297e+02
1.010976e+02
1.010654e+02
1.010333e+02
1.010012e+02
1.009690e+02
1.009369e+02
1.009047e+02
1.008726e+02
1.008405e+02
1.008083e+02
1.007762e+02
1.007440e+02
1.007119e+02
1.006798e+02
1.006476e+02
1.006155e+02
1.005833e+02
1.005512e+02
1.005191e+02
1.004869e+02
1.004548e+02
1.004226e+02
1.003905e+02
1.003584e+02
1.003262e+02
1.002941e+02
1.002620e+02
1.002298e+02
1.001977e+02
1.001655e+02
1.001334e+02
1.001013e+02
1.000691e+02
1.000370e+02
1.000048e+02
9.997270e+01
9.994056e+01
9.990842e+01
9.987628e+01
9.984414e+01
9.981200e+01
9.977986e+01
9.974772e+01
9.971558e+01
9.968344e+01
9.965130e+01
9.961917e+01
9.958703e+01
9.955489e+01
9.952275e+01
9.949061e+01
9.945847e+01
9.942633e+01
9.939419e+01
9.936205e+01
9.932991e+01
1.010914e+02
1.010593e+02
1.010271e+02
1.009950e+02
1.009629e+02
1.009307e+02
1.008986e+02
1.008664e+02
1.008343e+02
1.008022e+02
1.007700e+02
1.007379e+02
1.007057e+02
1.006736e+02
1.006415e+02
1.006093e+02
1.005772e+02
1.005450e+02
1.005129e+02
1.004808e+02
1.004486e+02
1.004165e+02
1.003843e+02
1.003522e+02
1.003201e+02
1.002879e+02
1.002558e+02
1.002237e+02
1.001915e+02
1.001594e+02
1.001272e+02
1.000951e+02
1.000630e+02
1.000308e+02
9.999867e+01
9.996654e+01
9.993440e+01
9.990226e+01
9.987012e+01
9.983798e+01
9.980584e+01
9.977370e+01
9.974156e+01
9.970942e+01
9.967728e+01
9.964514e+01
9.961300e+01
9.958086e+01
9.954872e+01
9.951658e+01
9.948444e+01
9.945231e+01
9.942017e+01
9.938803e+01
9.935589e+01
9.932375e+01
9.929161e+01
1.010531e+02
1.010210e+02
1.009888e+02
1.009567e+02
1.009246e+02
1.008924e+02
1.008603e+02
1.008281e+02
1.007960e+02
1.007639e+02
1.007317e+02
1.006996e+02
1.006674e+02
1.006353e+02
1.006032e+02
1.005710e+02
1.005389e+02
1.005067e+02
1.004746e+02
1.004425e+02
1.004103e+02
1.003782e+02
1.003460e+02
1.003139e+02
1.002818e+02
1.002496e+02
1.002175e+02
1.001853e+02
1.001532e+02
1.001211e+02
1.000889e+02
1.000568e+02
1.000247e+02
9.999251e+01
9.996037e+01
9.992823e+01
9.989609e+01
9.986395e+01
9.983182e+01
9.979968e+01
9.976754e+01
9.973540e+01
9.970326e+01
9.967112e+01
9.963898e+01
9.960684e+01
9.957470e+01
9.954256e+01
9.951042e+01
9.947828e+01
9.944614e+01
9.941400e+01
9.938186e+01
9.934972e+01
9.931758e+01
9.928545e+01
9.925331e+01
1.010148e+02
1.009827e+02
1.009505e+02
1.009184e+02
1.008863e+02
1.008541e+02
1.008220e+02
1.007898e+02
1.007577e+02
1.007256e+02
1.006934e+02
1.006613e+02
1.006291e+02
1.005970e+02
1.005649e+02
1.005327e+02
1.005006e+02
1.004684e+02
1.004363e+02
1.004042e+02
1.003720e+02
1.003399e+02
1.003077e+02
1.002756e+02
1.002435e+02
1.002113e+02
1.001792e+02
1.001470e+02
1.001149e+02
1.000828e+02
1.000506e+02
1.000185e+02
9.998635e+01
9.995421e+01
9.992207e+01
9.988993e+01
9.985779e+01
9.982565e+01
9.979351e+01
9.976137e+01
9.972923e+01
9.969709e+01
9.966496e+01
9.963282e+01
9.960068e+01
9.956854e+01
9.953640e+01
9.950426e+01
9.947212e+01
9.943998e+01
9.940784e+01
9.937570e+01
9.934356e+01
9.931142e+01
9.927928e+01
9.924714e+01
9.921500e+01
1.009765e+02
1.009444e+02
1.009122e+02
1.008801e+02
1.008479e+02
1.008158e+02
1.007837e+02
1.007515e+02
1.007194e+02
1.006873e+02
1.006551e+02
1.006230e+02
1.005908e+02
1.005587e+02
1.005266e+02
1.004944e+02
1.004623e+02
1.004301e+02
1.003980e+02
1.003659e+02
1.003337e+02
1.003016e+02
1.002694e+02
1.002373e+02
1.002052e+02
1.001730e+02
1.001409e+02
1.001087e+02
1.000766e+02
1.000445e+02
1.000123e+02
9.998019e+01
9.994805e+01
9.991591e+01
9.988377e+01
9.985163e+01
9.981949e+01
9.978735e+01
9.975521e+01
9.972307e+01
9.969093e+01
9.965879e+01
9.962665e+01
9.959451e+01
9.956237e+01
9.953023e+01
9.949810e+01
9.946596e+01
9.943382e+01
9.940168e+01
9.936954e+01
9.933740e+01
9.930526e+01
9.927312e+01
9.924098e+01
9.920884e+01
9.917670e+01
1.009382e+02
1.009061e+02
1.008739e+02
1.008418e+02
1.008096e+02
1.007775e+02
1.007454e+02
1.007132e+02
1.006811e+02
1.006490e+02
1.006168e+02
1.005847e+02
1.005525e+02
1.005204e+02
1.004883e+02
1.004561e+02
1.004240e+02
1.003918e+02
1.003597e+02
1.003276e+02
1.002954e+02
1.002633e+02
1.002311e+02
1.001990e+02
1.001669e+02
1.001347e+02
1.001026e+02
1.000704e+02
1.000383e+02
1.000062e+02
9.997402e+01
9.994188e+01
9.990974e+01
9.987761e+01
9.984547e+01
9.981333e+01
9.978119e+01
9.974905e+01
9.971691e+01
9.968477e+01
9.965263e+01
9.962049e+01
9.958835e+01
9.955621e+01
9.952407e+01
9.949193e+01
9.945979e+01
9.942765e+01
9.939551e+01
9.936338e+01
9.933124e+01
9.929910e+01
9.926696e+01
9.923482e+01
9.920268e+01
9.917054e+01
9.913840e+01
1.008999e+02
1.008678e+02
1.008356e+02
1.008035e+02
1.007713e+02
1.007392e+02
1.007071e+02
1.006749e+02
1.006428e+02
1.006106e+02
1.005785e+02
1.005464e+02
1.005142e+02
1.004821e+02
1.004500e+02
1.004178e+02
1.003857e+02
1.003535e+02
1.003214e+02
1.002893e+02
1.002571e+02
1.002250e+02
1.001928e+02
1.001607e+02
1.001286e+02
1.000964e+02
1.000643e+02
1.000321e+02
1.000000e+02
9.996786e+01
9.993572e+01
9.990358e+01
9.987144e+01
9.983930e+01
9.980716e+01
9.977502e+01
9.974288e+01
9.971075e+01
9.967861e+01
9.964647e+01
9.961433e+01
9.958219e+01
9.955005e+01
9.951791e+01
9.948577e+01
9.945363e+01
9.942149e+01
9.938935e+01
9.935721e+01
9.932507e+01
9.929293e+01
9.926079e+01
9.922865e+01
9.919652e+01
9.916438e+01
9.913224e+01
9.910010e+01
1.008616e+02
1.008295e+02
1.007973e+02
1.007652e+02
1.007330e+02
1.007009e+02
1.006688e+02
1.006366e+02
1.006045e+02
1.005723e+02
1.005402e+02
1.005081e+02
1.004759e+02
1.004438e+02
1.004116e+02
1.003795e+02
1.003474e+02
1.003152e+02
1.002831e+02
1.002510e+02
1.002188e+02
1.001867e+02
1.001545e+02
1.001224e+02
1.000903e+02
1.000581e+02
1.000260e+02
9.999384e+01
9.996170e+01
9.992956e+01
9.989742e+01
9.986528e+01
9.983314e+01
9.980100e+01
9.976886e+01
9.973672e+01
9.970458e+01
9.967244e+01
9.964030e+01
9.960816e+01
9.957603e+01
9.954389e+01
9.951175e+01
9.947961e+01
9.944747e+01
9.941533e+01
9.938319e+01
9.935105e+01
9.931891e+01
9.928677e+01
9.925463e+01
9.922249e+01
9.919035e+01
9.915821e+01
9.912607e+01
9.909393e+01
9.906180e+01
1.008233e+02
1.007912e+02
1.007590e+02
1.007269e+02
1.006947e+02
1.006626e+02
1.006305e+02
1.005983e+02
1.005662e+02
1.005340e+02
1.005019e+02
1.004698e+02
1.004376e+02
1.004055e+02
1.003733e+02
1.003412e+02
1.003091e+02
1.002769e+02
1.002448e+02
1.002126e+02
1.001805e+02
1.001484e+02
1.001162e+02
1.000841e+02
1.000520e+02
1.000198e+02
9.998767e+01
9.995553e+01
9.992340e+01
9.989126e+01
9.985912e+01
9.982698e+01
9.979484e+01
9.976270e+01
9.973056e+01
9.969842e+01
9.966628e+01
9.963414e+01
9.960200e+01
9.956986e+01
9.953772e+01
9.950558e+01
9.947344e+01
9.944130e+01
9.940917e+01
9.937703e+01
9.934489e+01
9.931275e+01
9.928061e+01
9.924847e+01
9.921633e+01
9.918419e+01
9.915205e+01
9.911991e+01
9.908777e+01
9.905563e+01
9.902349e+01
1.007850e+02
1.007529e+02
1.007207e+02
1.006886e+02
1.006564e+02
1.006243e+02
1.005922e+02
1.005600e+02
1.005279e+02
1.004957e+02
1.004636e+02
1.004315e+02
1.003993e+02
1.003672e+02
1.003350e+02
1.003029e+02
1.002708e+02
1.002386e+02
1.002065e+02
1.001743e+02
1.001422e+02
1.001101e+02
1.000779e+02
1.000458e+02
1.000137e+02
9.998151e+01
9.994937e+01
9.991723e+01
9.988509e+01
9.985295e+01
9.982081e+01
9.978868e+01
9.975654e+01
9.972440e+01
9.969226e+01
9.966012e+01
9.962798e+01
9.959584e+01
9.956370e+01
9.953156e+01
9.949942e+01
9.946728e+01
9.943514e+01
9.940300e+01
9.937086e+01
9.933872e+01
9.930658e+01
9.927445e+01
9.924231e+01
9.921017e+01
9.917803e+01
9.914589e+01
9.911375e+01
9.908161e+01
9.904947e+01
9.901733e+01
9.898519e+01
1.007467e+02
1.007146e+02
1.006824e+02
1.006503e+02
1.006181e+02
1.005860e+02
1.005539e+02
1.005217e+02
1.004896e+02
1.004574e+02
1.004253e+02
1.003932e+02
1.003610e+02
1.003289e+02
1.002967e+02
1.002646e+02
1.002325e+02
1.002003e+02
1.001682e+02
1.001360e+02
1.001039e+02
1.000718e+02
1.000396e+02
1.000075e+02
9.997535e+01
9.994321e+01
9.991107e+01
9.987893e+01
9.984679e+01
9.981465e+01
9.978251e+01
9.975037e+01
9.971823e+01
9.968609e+01
9.965395e+01
9.962182e+01
9.958968e+01
9.955754e+01
9.952540e+01
9.949326e+01
9.946112e+01
9.942898e+01
9.939684e+01
9.936470e+01
9.933256e+01
9.930042e+01
9.926828e+01
9.923614e+01
9.920400e+01
9.917186e+01
9.913972e+01
9.910759e+01
9.907545e+01
9.904331e+01
9.901117e+01
9.897903e+01
9.894689e+01
1.007084e+02
1.006763e+02
1.006441e+02
1.006120e+02
1.005798e+02
1.005477e+02
1.005156e+02
1.004834e+02
1.004513e+02
1.004191e+02
1.003870e+02
1.003549e+02
1.003227e+02
1.002906e+02
1.002584e+02
1.002263e+02
1.001942e+02
1.001620e+02
1.001299e+02
1.000977e+02
1.000656e+02
1.000335e+02
1.000013e+02
9.996919e+01
9.993705e+01
9.990491e+01
9.987277e+01
9.984063e+01
9.980849e+01
9.977635e+01
9.974421e+01
9.971207e+01
9.967993e+01
9.964779e+01
9.961565e+01
9.958351e+01
9.955137e+01
9.951923e+01
9.948710e+01
9.945496e+01
9.942282e+01
9.939068e+01
9.935854e+01
9.932640e+01
9.929426e+01
9.926212e+01
9.922998e+01
9.919784e+01
9.916570e+01
9.913356e+01
9.910142e+01
9.906928e+01
9.903714e+01
9.900500e+01
9.897286e+01
9.894073e+01
9.890859e+01
1.006701e+02
1.006379e+02
1.006058e+02
1.005737e+02
1.005415e+02
1.005094e+02
1.004773e+02
1.004451e+02
1.004130e+02
1.003808e+02
1.003487e+02
1.003166e+02
1.002844e+02
1.002523e+02
1.002201e+02
1.001880e+02
1.001559e+02
1.001237e+02
1.000916e+02
1.000594e+02
1.000273e+02
9.999516e+01
9.996302e+01
9.993088e+01
9.989874e+01
9.986660e+01
9.983447e+01
9.980233e+01
9.977019e+01
9.973805e+01
9.970591e+01
9.967377e+01
9.964163e+01
9.960949e+01
9.957735e+01
9.954521e+01
9.951307e+01
9.948093e+01
9.944879e+01
9.941665e+01
9.938451e+01
9.935237e+01
9.932024e+01
9.928810e+01
9.925596e+01
9.922382e+01
9.919168e+01
9.915954e+01
9.912740e+01
9.909526e+01
9.906312e+01
9.903098e+01
9.899884e+01
9.896670e+01
9.893456e+01
9.890242e+01
9.887028e+01
1.006318e+02
1.005996e+02
1.005675e+02
1.005354e+02
1.005032e+02
1.004711e+02
1.004390e+02
1.004068e+02
1.003747e+02
1.003425e+02
1.003104e+02
1.002783e+02
1.002461e+02
1.002140e+02
1.001818e+02
1.001497e+02
1.001176e+02
1.000854e+02
1.000533e+02
1.000211e+02
9.998900e+01
9.995686e+01
9.992472e+01
9.989258e+01
9.986044e+01
9.982830e+01
9.979616e+01
9.976402e+01
9.973188e+01
9.969975e+01
9.966761e+01
9.963547e+01
9.960333e+01
9.957119e+01
9.953905e+01
9.950691e+01
9.947477e+01
9.944263e+01
9.941049e+01
9.937835e+01
9.934621e+01
9.931407e+01
9.928193e+01
9.924979e+01
9.921765e+01
9.918551e+01
9.915338e+01
9.912124e+01
9.908910e+01
9.905696e+01
9.902482e+01
9.899268e+01
9.896054e+01
9.892840e+01
9.889626e+01
9.886412e+01
9.883198e+01
1.005935e+02
1.005613e+02
1.005292e+02
1.004971e+02
1.004649e+02
1.004328e+02
1.004006e+02
1.003685e+02
1.003364e+02
1.003042e+02
1.002721e+02
1.002400e+02
1.002078e+02
1.001757e+02
1.001435e+02
1.001114e+02
1.000793e+02
1.000471e+02
1.000150e+02
9.998284e+01
9.995070e+01
9.991856e+01
9.988642e+01
9.985428e+01
9.982214e+01
9.979000e+01
9.975786e+01
9.972572e+01
9.969358e+01
9.966144e+01
9.962930e+01
9.959716e+01
9.956502e+01
9.953289e+01
9.950075e+01
9.946861e+01
9.943647e+01
9.940433e+01
9.937219e+01
9.934005e+01
9.930791e+01
9.927577e+01
9.924363e+01
9.921149e+01
9.917935e+01
9.914721e+01
9.911507e+01
9.908293e+01
9.905079e+01
9.901866e+01
9.898652e+01
9.895438e+01
9.892224e+01
9.889010e+01
9.885796e+01
9.882582e+01
9.879368e+01
1.005552e+02
1.005230e+02
1.004909e+02
1.004588e+02
1.004266e+02
1.003945e+02
1.003623e+02
1.003302e+02
1.002981e+02
1.002659e+02
1.002338e+02
1.002016e+02
1.001695e+02
1.001374e+02
1.001052e+02
1.000731e+02
1.000410e+02
1.000088e+02
9.997667e+01
9.994453e+01
9.991240e+01
9.988026e+01
9.984812e+01
9.981598e+01
9.978384e+01
9.975170e+01
9.971956e+01
9.968742e+01
9.965528e+01
9.962314e+01
9.959100e+01
9.955886e+01
9.952672e+01
9.949458e+01
9.946244e+01
9.943030e+01
9.939816e+01
9.936603e+01
9.933389e+01
9.930175e+01
9.926961e+01
9.923747e+01
9.920533e+01
9.917319e+01
9.914105e+01
9.910891e+01
9.907677e+01
9.904463e+01
9.901249e+01
9.898035e+01
9.894821e+01
9.891607e+01
9.888393e+01
9.885180e+01
9.881966e+01
9.878752e+01
9.875538e+01
1.005169e+02
1.004847e+02
1.004526e+02
1.004205e+02
1.003883e+02
1.003562e+02
1.003240e+02
1.002919e+02
1.002598e+02
1.002276e+02
1.001955e+02
1.001633e+02
1.001312e+02
1.000991e+02
1.000669e+02
1.000348e+02
1.000027e+02
9.997051e+01
9.993837e+01
9.990623e+01
9.987409e+01
9.984195e+01
9.980981e+01
9.977767e+01
9.974554e+01
9.971340e+01
9.968126e+01
9.964912e+01
9.961698e+01
9.958484e+01
9.955270e+01
9.952056e+01
9.948842e+01
9.945628e+01
9.942414e+01
9.939200e+01
9.935986e+01
9.932772e+01
9.929558e+01
9.926344e+01
9.923131e+01
9.919917e+01
9.916703e+01
9.913489e+01
9.910275e+01
9.907061e+01
9.903847e+01
9.900633e+01
9.897419e+01
9.894205e+01
9.890991e+01
9.887777e+01
9.884563e+01
9.881349e+01
9.878135e+01
9.874921e+01
9.871708e+01
1.004786e+02
1.004464e+02
1.004143e+02
1.003822e+02
1.003500e+02
1.003179e+02
1.002857e+02
1.002536e+02
1.002215e+02
1.001893e+02
1.001572e+02
1.001250e+02
1.000929e+02
1.000608e+02
1.000286e+02
9.999649e+01
9.996435e+01
9.993221e+01
9.990007e+01
9.986793e+01
9.983579e+01
9.980365e+01
9.977151e+01
9.973937e+01
9.970723e+01
9.967509e+01
9.964295e+01
9.961081e+01
9.957868e+01
9.954654e+01
9.951440e+01
9.948226e+01
9.945012e+01
9.941798e+01
9.938584e+01
9.935370e+01
9.932156e+01
9.928942e+01
9.925728e+01
9.922514e+01
9.919300e+01
9.916086e+01
9.912872e+01
9.909658e+01
9.906445e+01
9.903231e+01
9.900017e+01
9.896803e+01
9.893589e+01
9.890375e+01
9.887161e+01
9.883947e+01
9.880733e+01
9.877519e+01
9.874305e+01
9.871091e+01
9.867877e+01
1.004403e+02
1.004081e+02
1.003760e+02
1.003439e+02
1.003117e+02
1.002796e+02
1.002474e+02
1.002153e+02
1.001832e+02
1.001510e+02
1.001189e+02
1.000867e+02
1.000546e+02
1.000225e+02
9.999032e+01
9.995819e+01
9.992605e+01
9.989391e+01
9.986177e+01
9.982963e+01
9.979749e+01
9.976535e+01
9.973321e+01
9.970107e+01
9.966893e+01
9.963679e+01
9.960465e+01
9.957251e+01
9.954037e+01
9.950823e+01
9.947609e+01
9.944396e+01
9.941182e+01
9.937968e+01
9.934754e+01
9.931540e+01
9.928326e+01
9.925112e+01
9.921898e+01
9.918684e+01
9.915470e+01
9.912256e+01
9.909042e+01
9.905828e+01
9.902614e+01
9.899400e+01
9.896186e+01
9.892973e+01
9.889759e+01
9.886545e+01
9.883331e+01
9.880117e+01
9.876903e+01
9.873689e+01
9.870475e+01
9.867261e+01
9.864047e+01
1.004020e+02
1.003698e+02
1.003377e+02
1.003056e+02
1.002734e+02
1.002413e+02
1.002091e+02
1.001770e+02
1.001449e+02
1.001127e+02
1.000806e+02
1.000484e+02
1.000163e+02
9.998416e+01
9.995202e+01
9.991988e+01
9.988774e+01
9.985560e+01
9.982346e+01
9.979133e+01
9.975919e+01
9.972705e+01
9.969491e+01
9.966277e+01
9.963063e+01
9.959849e+01
9.956635e+01
9.953421e+01
9.950207e+01
9.946993e+01
9.943779e+01
9.940565e+01
9.937351e+01
9.934137e+01
9.930923e+01
9.927710e+01
9.924496e+01
9.921282e+01
9.918068e+01
9.914854e+01
9.911640e+01
9.908426e+01
9.905212e+01
9.901998e+01
9.898784e+01
9.895570e+01
9.892356e+01
9.889142e+01
9.885928e+01
9.882714e+01
9.879500e+01
9.876287e+01
9.873073e+01
9.869859e+01
9.866645e+01
9.863431e+01
9.860217e+01
1.003637e+02
1.003315e+02
1.002994e+02
1.002673e+02
1.002351e+02
1.002030e+02
1.001708e+02
1.001387e+02
1.001066e+02
1.000744e+02
1.000423e+02
1.000101e+02
9.997800e+01
9.994586e+01
9.991372e+01
9.988158e+01
9.984944e+01
9.981730e+01
9.978516e+01
9.975302e+01
9.972088e+01
9.968874e+01
9.965661e+01
9.962447e+01
9.959233e+01
9.956019e+01
9.952805e+01
9.949591e+01
9.946377e+01
9.943163e+01
9.939949e+01
9.936735e+01
9.933521e+01
9.930307e+01
9.927093e+01
9.923879e+01
9.920665e+01
9.917451e+01
9.914238e+01
9.911024e+01
9.907810e+01
9.904596e+01
9.901382e+01
9.898168e+01
9.894954e+01
9.891740e+01
9.888526e+01
9.885312e+01
9.882098e+01
9.878884e+01
9.875670e+01
9.872456e+01
9.869242e+01
9.866028e+01
9.862814e+01
9.859601e+01
9.856387e+01
1.003254e+02
1.002932e+02
1.002611e+02
1.002290e+02
1.001968e+02
1.001647e+02
1.001325e+02
1.001004e+02
1.000683e+02
1.000361e+02
1.000040e+02
9.997184e+01
9.993970e+01
9.990756e+01
9.987542e+01
9.984328e+01
9.981114e+01
9.977900e+01
9.974686e+01
9.971472e+01
9.968258e+01
9.965044e+01
9.961830e+01
9.958616e+01
9.955402e+01
9.952188e+01
9.948975e+01
9.945761e+01
9.942547e+01
9.939333e+01
9.936119e+01
9.932905e+01
9.929691e+01
9.926477e+01
9.923263e+01
9.920049e+01
9.916835e+01
9.913621e+01
9.910407e+01
9.907193e+01
9.903979e+01
9.900765e+01
9.897552e+01
9.894338e+01
9.891124e+01
9.887910e+01
9.884696e+01
9.881482e+01
9.878268e+01
9.875054e+01
9.871840e+01
9.868626e+01
9.865412e+01
9.862198e+01
9.858984e+01
9.855770e+01
9.852556e+01
1.002871e+02
1.002549e+02
1.002228e+02
1.001906e+02
1.001585e+02
1.001264e+02
1.000942e+02
1.000621e+02
1.000300e+02
9.999781e+01
9.996567e+01
9.993353e+01
9.990139e+01
9.986926e+01
9.983712e+01
9.980498e+01
9.977284e+01
9.974070e+01
9.970856e+01
9.967642e+01
9.964428e+01
9.961214e+01
9.958000e+01
9.954786e+01
9.951572e+01
9.948358e+01
9.945144e+01
9.941930e+01
9.938716e+01
9.935503e+01
9.932289e+01
9.929075e+01
9.925861e+01
9.922647e+01
9.919433e+01
9.916219e+01
9.913005e+01
9.909791e+01
9.906577e+01
9.903363e+01
9.900149e+01
9.896935e+01
9.893721e+01
9.890507e+01
9.887293e+01
9.884079e+01
9.880866e+01
9.877652e+01
9.874438e+01
9.871224e+01
9.868010e+01
9.864796e+01
9.861582e+01
9.858368e+01
9.855154e+01
9.851940e+01
9.848726e+01
1.002488e+02
1.002166e+02
1.001845e+02
1.001523e+02
1.001202e+02
1.000881e+02
1.000559e+02
1.000238e+02
9.999165e+01
9.995951e+01
9.992737e+01
9.989523e+01
9.986309e+01
9.983095e+01
9.979881e+01
9.976667e+01
9.973453e+01
9.970240e+01
9.967026e+01
9.963812e+01
9.960598e+01
9.957384e+01
9.954170e+01
9.950956e+01
9.947742e+01
9.944528e+01
9.941314e+01
9.938100e+01
9.934886e+01
9.931672e+01
9.928458e+01
9.925244e+01
9.922030e+01
9.918817e+01
9.915603e+01
9.912389e+01
9.909175e+01
9.905961e+01
9.902747e+01
9.899533e+01
9.896319e+01
9.893105e+01
9.889891e+01
9.886677e+01
9.883463e+01
9.880249e+01
9.877035e+01
9.873821e+01
9.870607e+01
9.867394e+01
9.864180e+01
9.860966e+01
9.857752e+01
9.854538e+01
9.851324e+01
9.848110e+01
9.844896e+01
1.002105e+02
1.001783e+02
1.001462e+02
1.001140e+02
1.000819e+02
1.000498e+02
1.000176e+02
9.998549e+01
9.995335e+01
9.992121e+01
9.988907e+01
9.985693e+01
9.982479e+01
9.979265e+01
9.976051e+01
9.972837e+01
9.969623e+01
9.966409e+01
9.963195e+01
9.959981e+01
9.956768e+01
9.953554e+01
9.950340e+01
9.947126e+01
9.943912e+01
9.940698e+01
9.937484e+01
9.934270e+01
9.931056e+01
9.927842e+01
9.924628e+01
9.921414e+01
9.918200e+01
9.914986e+01
9.911772e+01
9.908558e+01
9.905344e+01
9.902131e+01
9.898917e+01
9.895703e+01
9.892489e+01
9.889275e+01
9.886061e+01
9.882847e+01
9.879633e+01
9.876419e+01
9.873205e+01
9.869991e+01
9.866777e+01
9.863563e+01
9.860349e+01
9.857135e+01
9.853921e+01
9.850708e+01
9.847494e+01
9.844280e+01
9.841066e+01
1.001722e+02
1.001400e+02
1.001079e+02
1.000757e+02
1.000436e+02
1.000115e+02
9.997932e+01
9.994718e+01
9.991505e+01
9.988291e+01
9.985077e+01
9.981863e+01
9.978649e+01
9.975435e+01
9.972221e+01
9.969007e+01
9.965793e+01
9.962579e+01
9.959365e+01
9.956151e+01
9.952937e+01
9.949723e+01
9.946509e+01
9.943295e+01
9.940082e+01
9.936868e+01
9.933654e+01
9.930440e+01
9.927226e+01
9.924012e+01
9.920798e+01
9.917584e+01
9.914370e+01
9.911156e+01
9.907942e+01
9.904728e+01
9.901514e+01
9.898300e+01
9.895086e+01
9.891872e+01
9.888659e+01
9.885445e+01
9.882231e+01
9.879017e+01
9.875803e+01
9.872589e+01
9.869375e+01
9.866161e+01
9.862947e+01
9.859733e+01
9.856519e+01
9.853305e+01
9.850091e+01
9.846877e+01
9.843663e+01
9.840449e+01
9.837236e+01
1.001339e+02
1.001017e+02
1.000696e+02
1.000374e+02
1.000053e+02
9.997316e+01
9.994102e+01
9.990888e+01
9.987674e+01
9.984460e+01
9.981246e+01
9.978033e+01
9.974819e+01
9.971605e+01
9.968391e+01
9.965177e+01
9.961963e+01
9.958749e+01
9.955535e+01
9.952321e+01
9.949107e+01
9.945893e+01
9.942679e+01
9.939465e+01
9.936251e+01
9.933037e+01
9.929823e+01
9.926609e+01
9.923396e+01
9.920182e+01
9.916968e+01
9.913754e+01
9.910540e+01
9.907326e+01
9.904112e+01
9.900898e+01
9.897684e+01
9.894470e+01
9.891256e+01
9.888042e+01
9.884828e+01
9.881614e+01
9.878400e+01
9.875186e+01
9.871973e+01
9.868759e+01
9.865545e+01
9.862331e+01
9.859117e+01
9.855903e+01
9.852689e+01
9.849475e+01
9.846261e+01
9.843047e+01
9.839833e+01
9.836619e+01
9.833405e+01
