# vtk DataFile Version 3.4
Image
ASCII
DATASET STRUCTURED_POINTS
DIMENSIONS 57 40 1
ORIGIN 0.000000 0.000000 0.000000
SPACING 1.000000 1.000000 1.000000
POINT_DATA 2280
SCALARS facies float 1
LOOKUP_TABLE default
1.000274e+02
1.000271e+02
1.000267e+02
1.000264e+02
1.000261e+02
1.000257e+02
1.000254e+02
1.000250e+02
1.000247e+02
1.000244e+02
1.000240e+02
1.000237e+02
1.000233e+02
1.000230e+02
1.000226e+02
1.000223e+02
1.000220e+02
1.000216e+02
1.000213e+02
1.000209e+02
1.000206e+02
1.000202e+02
1.000199e+02
1.000196e+02
1.000192e+02
1.000189e+02
1.000185e+02
1.000182e+02
1.000179e+02
1.000175e+02
1.000172e+02
1.000168e+02
1.000165e+02
1.000161e+02
1.000158e+02
1.000155e+02
1.000151e+02
1.000148e+02
1.000144e+02
1.000141e+02
1.000137e+02
1.000134e+02
1.000131e+02
1.000127e+02
1.000124e+02
1.000120e+02
1.000117e+02
1.000114e+02
1.000110e+02
1.000107e+02
1.000103e+02
1.000100e+02
1.000096e+02
1.000093e+02
1.000090e+02
1.000086e+02
1.000083e+02
1.000265e+02
1.000261e+02
1.000258e+02
1.000255e+02
1.000251e+02
1.000248e+02
1.000244e+02
1.000241e+02
1.000238e+02
1.000234e+02
1.000231e+02
1.000227e+02
1.000224e+02
1.000220e+02
1.000217e+02
1.000214e+02
1.000210e+02
1.000207e+02
1.000203e+02
1.000200e+02
1.000197e+02
1.000193e+02
1.000190e+02
1.000186e+02
1.000183e+02
1.000179e+02
1.000176e+02
1.000173e+02
1.000169e+02
1.000166e+02
1.000162e+02
1.000159e+02
1.000155e+02
1.000152e+02
1.000149e+02
1.000145e+02
1.000142e+02
1.000138e+02
1.000135e+02
1.000132e+02
1.000128e+02
1.000125e+02
1.000121e+02
1.000118e+02
1.000114e+02
1.000111e+02
1.000108e+02
1.000104e+02
1.000101e+02
1.000097e+02
1.000094e+02
1.000090e+02
1.000087e+02
1.000084e+02
1.000080e+02
1.000077e+02
1.000073e+02
1.000256e+02
1.000252e+02
1.000249e+02
1.000245e+02
1.000242e+02
1.000238e+02
1.000235e+02
1.000232e+02
1.000228e+02
1.000225e+02
1.000221e+02
1.000218e+02
1.000214e+02
1.000211e+02
1.000208e+02
1.000204e+02
1.000201e+02
1.000197e+02
1.000194e+02
1.000191e+02
1.000187e+02
1.000184e+02
1.000180e+02
1.000177e+02
1.000173e+02
1.000170e+02
1.000167e+02
1.000163e+02
1.000160e+02
1.000156e+02
1.000153e+02
1.000149e+02
1.000146e+02
1.000143e+02
1.000139e+02
1.000136e+02
1.000132e+02
1.000129e+02
1.000126e+02
1.000122e+02
1.000119e+02
1.000115e+02
1.000112e+02
1.000108e+02
1.000105e+02
1.000102e+02
1.000098e+02
1.000095e+02
1.000091e+02
1.000088e+02
1.000085e+02
1.000081e+02
1.000078e+02
1.000074e+02
1.000071e+02
1.000067e+02
1.000064e+02
1.000246e+02
1.000243e+02
1.000239e+02
1.000236e+02
1.000232e+02
1.000229e+02
1.000226e+02
1.000222e+02
1.000219e+02
1.000215e+02
1.000212e+02
1.000208e+02
1.000205e+02
1.000202e+02
1.000198e+02
1.000195e+02
1.000191e+02
1.000188e+02
1.000185e+02
1.000181e+02
1.000178e+02
1.000174e+02
1.000171e+02
1.000167e+02
1.000164e+02
1.000161e+02
1.000157e+02
1.000154e+02
1.000150e+02
1.000147e+02
1.000144e+02
1.000140e+02
1.000137e+02
1.000133e+02
1.000130e+02
1.000126e+02
1.000123e+02
1.000120e+02
1.000116e+02
1.000113e+02
1.000109e+02
1.000106e+02
1.000102e+02
1.000099e+02
1.000096e+02
1.000092e+02
1.000089e+02
1.000085e+02
1.000082e+02
1.000079e+02
1.000075e+02
1.000072e+02
1.000068e+02
1.000065e+02
1.000061e+02
1.000058e+02
1.000055e+02
1.000237e+02
1.000233e+02
1.000230e+02
1.000226e+02
1.000223e+02
1.000220e+02
1.000216e+02
1.000213e+02
1.000209e+02
1.000206e+02
1.000203e+02
1.000199e+02
1.000196e+02
1.000192e+02
1.000189e+02
1.000185e+02
1.000182e+02
1.000179e+02
1.000175e+02
1.000172e+02
1.000168e+02
1.000165e+02
1.000161e+02
1.000158e+02
1.000155e+02
1.000151e+02
1.000148e+02
1.000144e+02
1.000141e+02
1.000138e+02
1.000134e+02
1.000131e+02
1.000127e+02
1.000124e+02
1.000120e+02
1.000117e+02
1.000114e+02
1.000110e+02
1.000107e+02
1.000103e+02
1.000100e+02
1.000096e+02
1.000093e+02
1.000090e+02
1.000086e+02
1.000083e+02
1.000079e+02
1.000076e+02
1.000073e+02
1.000069e+02
1.000066e+02
1.000062e+02
1.000059e+02
1.000055e+02
1.000052e+02
1.000049e+02
1.000045e+02
1.000227e+02
1.000224e+02
1.000220e+02
1.000217e+02
1.000214e+02
1.000210e+02
1.000207e+02
1.000203e+02
1.000200e+02
1.000197e+02
1.000193e+02
1.000190e+02
1.000186e+02
1.000183e+02
1.000179e+02
1.000176e+02
1.000173e+02
1.000169e+02
1.000166e+02
1.000162e+02
1.000159e+02
1.000155e+02
1.000152e+02
1.000149e+02
1.000145e+02
1.000142e+02
1.000138e+02
1.000135e+02
1.000132e+02
1.000128e+02
1.000125e+02
1.000121e+02
1.000118e+02
1.000114e+02
1.000111e+02
1.000108e+02
1.000104e+02
1.000101e+02
1.000097e+02
1.000094e+02
1.000091e+02
1.000087e+02
1.000084e+02
1.000080e+02
1.000077e+02
1.000073e+02
1.000070e+02
1.000067e+02
1.000063e+02
1.000060e+02
1.000056e+02
1.000053e+02
1.000049e+02
1.000046e+02
1.000043e+02
1.000039e+02
1.000036e+02
1.000218e+02
1.000215e+02
1.000211e+02
1.000208e+02
1.000204e+02
1.000201e+02
1.000197e+02
1.000194e+02
1.000191e+02
1.000187e+02
1.000184e+02
1.000180e+02
1.000177e+02
1.000173e+02
1.000170e+02
1.000167e+02
1.000163e+02
1.000160e+02
1.000156e+02
1.000153e+02
1.000150e+02
1.000146e+02
1.000143e+02
1.000139e+02
1.000136e+02
1.000132e+02
1.000129e+02
1.000126e+02
1.000122e+02
1.000119e+02
1.000115e+02
1.000112e+02
1.000108e+02
1.000105e+02
1.000102e+02
1.000098e+02
1.000095e+02
1.000091e+02
1.000088e+02
1.000085e+02
1.000081e+02
1.000078e+02
1.000074e+02
1.000071e+02
1.000067e+02
1.000064e+02
1.000061e+02
1.000057e+02
1.000054e+02
1.000050e+02
1.000047e+02
1.000043e+02
1.000040e+02
1.000037e+02
1.000033e+02
1.000030e+02
1.000026e+02
1.000209e+02
1.000205e+02
1.000202e+02
1.000198e+02
1.000195e+02
1.000191e+02
1.000188e+02
1.000185e+02
1.000181e+02
1.000178e+02
1.000174e+02
1.000171e+02
1.000167e+02
1.000164e+02
1.000161e+02
1.000157e+02
1.000154e+02
1.000150e+02
1.000147e+02
1.000144e+02
1.000140e+02
1.000137e+02
1.000133e+02
1.000130e+02
1.000126e+02
1.000123e+02
1.000120e+02
1.000116e+02
1.000113e+02
1.000109e+02
1.000106e+02
1.000103e+02
1.000099e+02
1.000096e+02
1.000092e+02
1.000089e+02
1.000085e+02
1.000082e+02
1.000079e+02
1.000075e+02
1.000072e+02
1.000068e+02
1.000065e+02
1.000061e+02
1.000058e+02
1.000055e+02
1.000051e+02
1.000048e+02
1.000044e+02
1.000041e+02
1.000038e+02
1.000034e+02
1.000031e+02
1.000027e+02
1.000024e+02
1.000020e+02
1.000017e+02
1.000199e+02
1.000196e+02
1.000192e+02
1.000189e+02
1.000185e+02
1.000182e+02
1.000179e+02
1.000175e+02
1.000172e+02
1.000168e+02
1.000165e+02
1.000162e+02
1.000158e+02
1.000155e+02
1.000151e+02
1.000148e+02
1.000144e+02
1.000141e+02
1.000138e+02
1.000134e+02
1.000131e+02
1.000127e+02
1.000124e+02
1.000120e+02
1.000117e+02
1.000114e+02
1.000110e+02
1.000107e+02
1.000103e+02
1.000100e+02
1.000097e+02
1.000093e+02
1.000090e+02
1.000086e+02
1.000083e+02
1.000079e+02
1.000076e+02
1.000073e+02
1.000069e+02
1.000066e+02
1.000062e+02
1.000059e+02
1.000055e+02
1.000052e+02
1.000049e+02
1.000045e+02
1.000042e+02
1.000038e+02
1.000035e+02
1.000032e+02
1.000028e+02
1.000025e+02
1.000021e+02
1.000018e+02
1.000014e+02
1.000011e+02
1.000008e+02
1.000190e+02
1.000186e+02
1.000183e+02
1.000179e+02
1.000176e+02
1.000173e+02
1.000169e+02
1.000166e+02
1.000162e+02
1.000159e+02
1.000156e+02
1.000152e+02
1.000149e+02
1.000145e+02
1.000142e+02
1.000138e+02
1.000135e+02
1.000132e+02
1.000128e+02
1.000125e+02
1.000121e+02
1.000118e+02
1.000114e+02
1.000111e+02
1.000108e+02
1.000104e+02
1.000101e+02
1.000097e+02
1.000094e+02
1.000091e+02
1.000087e+02
1.000084e+02
1.000080e+02
1.000077e+02
1.000073e+02
1.000070e+02
1.000067e+02
1.000063e+02
1.000060e+02
1.000056e+02
1.000053e+02
1.000050e+02
1.000046e+02
1.000043e+02
1.000039e+02
1.000036e+02
1.000032e+02
1.000029e+02
1.000026e+02
1.000022e+02
1.000019e+02
1.000015e+02
1.000012e+02
1.000008e+02
1.000005e+02
1.000002e+02
9.999982e+01
1.000180e+02
1.000177e+02
1.000173e+02
1.000170e+02
1.000167e+02
1.000163e+02
1.000160e+02
1.000156e+02
1.000153e+02
1.000150e+02
1.000146e+02
1.000143e+02
1.000139e+02
1.000136e+02
1.000132e+02
1.000129e+02
1.000126e+02
1.000122e+02
1.000119e+02
1.000115e+02
1.000112e+02
1.000109e+02
1.000105e+02
1.000102e+02
1.000098e+02
1.000095e+02
1.000091e+02
1.000088e+02
1.000085e+02
1.000081e+02
1.000078e+02
1.000074e+02
1.000071e+02
1.000067e+02
1.000064e+02
1.000061e+02
1.000057e+02
1.000054e+02
1.000050e+02
1.000047e+02
1.000044e+02
1.000040e+02
1.000037e+02
1.000033e+02
1.000030e+02
1.000026e+02
1.000023e+02
1.000020e+02
1.000016e+02
1.000013e+02
1.000009e+02
1.000006e+02
1.000002e+02
9.999991e+01
9.999956e+01
9.999922e+01
9.999888e+01
1.000171e+02
1.000168e+02
1.000164e+02
1.000161e+02
1.000157e+02
1.000154e+02
1.000150e+02
1.000147e+02
1.000144e+02
1.000140e+02
1.000137e+02
1.000133e+02
1.000130e+02
1.000126e+02
1.000123e+02
1.000120e+02
1.000116e+02
1.000113e+02
1.000109e+02
1.000106e+02
1.000103e+02
1.000099e+02
1.000096e+02
1.000092e+02
1.000089e+02
1.000085e+02
1.000082e+02
1.000079e+02
1.000075e+02
1.000072e+02
1.000068e+02
1.000065e+02
1.000061e+02
1.000058e+02
1.000055e+02
1.000051e+02
1.000048e+02
1.000044e+02
1.000041e+02
1.000038e+02
1.000034e+02
1.000031e+02
1.000027e+02
1.000024e+02
1.000020e+02
1.000017e+02
1.000014e+02
1.000010e+02
1.000007e+02
1.000003e+02
9.999999e+01
9.999965e+01
9.999931e+01
9.999897e+01
9.999863e+01
9.999828e+01
9.999794e+01
1.000162e+02
1.000158e+02
1.000155e+02
1.000151e+02
1.000148e+02
1.000144e+02
1.000141e+02
1.000138e+02
1.000134e+02
1.000131e+02
1.000127e+02
1.000124e+02
1.000121e+02
1.000117e+02
1.000114e+02
1.000110e+02
1.000107e+02
1.000103e+02
1.000100e+02
1.000097e+02
1.000093e+02
1.000090e+02
1.000086e+02
1.000083e+02
1.000079e+02
1.000076e+02
1.000073e+02
1.000069e+02
1.000066e+02
1.000062e+02
1.000059e+02
1.000056e+02
1.000052e+02
1.000049e+02
1.000045e+02
1.000042e+02
1.000038e+02
1.000035e+02
1.000032e+02
1.000028e+02
1.000025e+02
1.000021e+02
1.000018e+02
1.000014e+02
1.000011e+02
1.000008e+02
1.000004e+02
1.000001e+02
9.999974e+01
9.999940e+01
9.999905e+01
9.999871e+01
9.999837e+01
9.999803e+01
9.999769e+01
9.999734e+01
9.999700e+01
1.000152e+02
1.000149e+02
1.000145e+02
1.000142e+02
1.000138e+02
1.000135e+02
1.000132e+02
1.000128e+02
1.000125e+02
1.000121e+02
1.000118e+02
1.000115e+02
1.000111e+02
1.000108e+02
1.000104e+02
1.000101e+02
1.000097e+02
1.000094e+02
1.000091e+02
1.000087e+02
1.000084e+02
1.000080e+02
1.000077e+02
1.000073e+02
1.000070e+02
1.000067e+02
1.000063e+02
1.000060e+02
1.000056e+02
1.000053e+02
1.000050e+02
1.000046e+02
1.000043e+02
1.000039e+02
1.000036e+02
1.000032e+02
1.000029e+02
1.000026e+02
1.000022e+02
1.000019e+02
1.000015e+02
1.000012e+02
1.000008e+02
1.000005e+02
1.000002e+02
9.999982e+01
9.999948e+01
9.999914e+01
9.999880e+01
9.999846e+01
9.999811e+01
9.999777e+01
9.999743e+01
9.999709e+01
9.999675e+01
9.999640e+01
9.999606e+01
1.000143e+02
1.000139e+02
1.000136e+02
1.000132e+02
1.000129e+02
1.000126e+02
1.000122e+02
1.000119e+02
1.000115e+02
1.000112e+02
1.000109e+02
1.000105e+02
1.000102e+02
1.000098e+02
1.000095e+02
1.000091e+02
1.000088e+02
1.000085e+02
1.000081e+02
1.000078e+02
1.000074e+02
1.000071e+02
1.000068e+02
1.000064e+02
1.000061e+02
1.000057e+02
1.000054e+02
1.000050e+02
1.000047e+02
1.000044e+02
1.000040e+02
1.000037e+02
1.000033e+02
1.000030e+02
1.000026e+02
1.000023e+02
1.000020e+02
1.000016e+02
1.000013e+02
1.000009e+02
1.000006e+02
1.000003e+02
9.999991e+01
9.999957e+01
9.999923e+01
9.999888e+01
9.999854e+01
9.999820e+01
9.999786e+01
9.999752e+01
9.999717e+01
9.999683e+01
9.999649e+01
9.999615e+01
9.999581e+01
9.999546e+01
9.999512e+01
1.000133e+02
1.000130e+02
1.000127e+02
1.000123e+02
1.000120e+02
1.000116e+02
1.000113e+02
1.000109e+02
1.000106e+02
1.000103e+02
1.000099e+02
1.000096e+02
1.000092e+02
1.000089e+02
1.000085e+02
1.000082e+02
1.000079e+02
1.000075e+02
1.000072e+02
1.000068e+02
1.000065e+02
1.000062e+02
1.000058e+02
1.000055e+02
1.000051e+02
1.000048e+02
1.000044e+02
1.000041e+02
1.000038e+02
1.000034e+02
1.000031e+02
1.000027e+02
1.000024e+02
1.000020e+02
1.000017e+02
1.000014e+02
1.000010e+02
1.000007e+02
1.000003e+02
1.000000e+02
9.999965e+01
9.999931e+01
9.999897e+01
9.999863e+01
9.999829e+01
9.999794e+01
9.999760e+01
9.999726e+01
9.999692e+01
9.999658e+01
9.999623e+01
9.999589e+01
9.999555e+01
9.999521e+01
9.999487e+01
9.999452e+01
9.999418e+01
1.000124e+02
1.000121e+02
1.000117e+02
1.000114e+02
1.000110e+02
1.000107e+02
1.000103e+02
1.000100e+02
1.000097e+02
1.000093e+02
1.000090e+02
1.000086e+02
1.000083e+02
1.000079e+02
1.000076e+02
1.000073e+02
1.000069e+02
1.000066e+02
1.000062e+02
1.000059e+02
1.000056e+02
1.000052e+02
1.000049e+02
1.000045e+02
1.000042e+02
1.000038e+02
1.000035e+02
1.000032e+02
1.000028e+02
1.000025e+02
1.000021e+02
1.000018e+02
1.000015e+02
1.000011e+02
1.000008e+02
1.000004e+02
1.000001e+02
9.999974e+01
9.999940e+01
9.999906e+01
9.999871e+01
9.999837e+01
9.999803e+01
9.999769e+01
9.999735e+01
9.999700e+01
9.999666e+01
9.999632e+01
9.999598e+01
9.999564e+01
9.999529e+01
9.999495e+01
9.999461e+01
9.999427e+01
9.999393e+01
9.999358e+01
9.999324e+01
1.000115e+02
1.000111e+02
1.000108e+02
1.000104e+02
1.000101e+02
1.000097e+02
1.000094e+02
1.000091e+02
1.000087e+02
1.000084e+02
1.000080e+02
1.000077e+02
1.000074e+02
1.000070e+02
1.000067e+02
1.000063e+02
1.000060e+02
1.000056e+02
1.000053e+02
1.000050e+02
1.000046e+02
1.000043e+02
1.000039e+02
1.000036e+02
1.000032e+02
1.000029e+02
1.000026e+02
1.000022e+02
1.000019e+02
1.000015e+02
1.000012e+02
1.000009e+02
1.000005e+02
1.000002e+02
9.999983e+01
9.999949e+01
9.999914e+01
9.999880e+01
9.999846e+01
9.999812e+01
9.999778e+01
9.999743e+01
9.999709e+01
9.999675e+01
9.999641e+01
9.999607e+01
9.999572e+01
9.999538e+01
9.999504e+01
9.999470e+01
9.999435e+01
9.999401e+01
9.999367e+01
9.999333e+01
9.999299e+01
9.999264e+01
9.999230e+01
1.000105e+02
1.000102e+02
1.000098e+02
1.000095e+02
1.000091e+02
1.000088e+02
1.000085e+02
1.000081e+02
1.000078e+02
1.000074e+02
1.000071e+02
1.000068e+02
1.000064e+02
1.000061e+02
1.000057e+02
1.000054e+02
1.000050e+02
1.000047e+02
1.000044e+02
1.000040e+02
1.000037e+02
1.000033e+02
1.000030e+02
1.000026e+02
1.000023e+02
1.000020e+02
1.000016e+02
1.000013e+02
1.000009e+02
1.000006e+02
1.000003e+02
9.999991e+01
9.999957e+01
9.999923e+01
9.999889e+01
9.999855e+01
9.999820e+01
9.999786e+01
9.999752e+01
9.999718e+01
9.999684e+01
9.999649e+01
9.999615e+01
9.999581e+01
9.999547e+01
9.999513e+01
9.999478e+01
9.999444e+01
9.999410e+01
9.999376e+01
9.999342e+01
9.999307e+01
9.999273e+01
9.999239e+01
9.999205e+01
9.999171e+01
9.999136e+01
1.000096e+02
1.000092e+02
1.000089e+02
1.000086e+02
1.000082e+02
1.000079e+02
1.000075e+02
1.000072e+02
1.000068e+02
1.000065e+02
1.000062e+02
1.000058e+02
1.000055e+02
1.000051e+02
1.000048e+02
1.000044e+02
1.000041e+02
1.000038e+02
1.000034e+02
1.000031e+02
1.000027e+02
1.000024e+02
1.000021e+02
1.000017e+02
1.000014e+02
1.000010e+02
1.000007e+02
1.000003e+02
1.000000e+02
9.999966e+01
9.999932e+01
9.999897e+01
9.999863e+01
9.999829e+01
9.999795e+01
9.999761e+01
9.999726e+01
9.999692e+01
9.999658e+01
9.999624e+01
9.999590e+01
9.999555e+01
9.999521e+01
9.999487e+01
9.999453e+01
9.999419e+01
9.999384e+01
9.999350e+01
9.999316e+01
9.999282e+01
9.999248e+01
9.999213e+01
9.999179e+01
9.999145e+01
9.999111e+01
9.999077e+01
9.999042e+01
1.000086e+02
1.000083e+02
1.000080e+02
1.000076e+02
1.000073e+02
1.000069e+02
1.000066e+02
1.000062e+02
1.000059e+02
1.000056e+02
1.000052e+02
1.000049e+02
1.000045e+02
1.000042e+02
1.000038e+02
1.000035e+02
1.000032e+02
1.000028e+02
1.000025e+02
1.000021e+02
1.000018e+02
1.000015e+02
1.000011e+02
1.000008e+02
1.000004e+02
1.000001e+02
9.999974e+01
9.999940e+01
9.999906e+01
9.999872e+01
9.999838e+01
9.999803e+01
9.999769e+01
9.999735e+01
9.999701e+01
9.999667e+01
9.999632e+01
9.999598e+01
9.999564e+01
9.999530e+01
9.999496e+01
9.999461e+01
9.999427e+01
9.999393e+01
9.999359e+01
9.999325e+01
9.999290e+01
9.999256e+01
9.999222e+01
9.999188e+01
9.999154e+01
9.999119e+01
9.999085e+01
9.999051e+01
9.999017e+01
9.998983e+01
9.998948e+01
1.000077e+02
1.000074e+02
1.000070e+02
1.000067e+02
1.000063e+02
1.000060e+02
1.000056e+02
1.000053e+02
1.000050e+02
1.000046e+02
1.000043e+02
1.000039e+02
1.000036e+02
1.000033e+02
1.000029e+02
1.000026e+02
1.000022e+02
1.000019e+02
1.000015e+02
1.000012e+02
1.000009e+02
1.000005e+02
1.000002e+02
9.999983e+01
9.999949e+01
9.999915e+01
9.999880e+01
9.999846e+01
9.999812e+01
9.999778e+01
9.999744e+01
9.999709e+01
9.999675e+01
9.999641e+01
9.999607e+01
9.999573e+01
9.999538e+01
9.999504e+01
9.999470e+01
9.999436e+01
9.999402e+01
9.999367e+01
9.999333e+01
9.999299e+01
9.999265e+01
9.999231e+01
9.999196e+01
9.999162e+01
9.999128e+01
9.999094e+01
9.999060e+01
9.999025e+01
9.998991e+01
9.998957e+01
9.998923e+01
9.998889e+01
9.998854e+01
1.000068e+02
1.000064e+02
1.000061e+02
1.000057e+02
1.000054e+02
1.000050e+02
1.000047e+02
1.000044e+02
1.000040e+02
1.000037e+02
1.000033e+02
1.000030e+02
1.000027e+02
1.000023e+02
1.000020e+02
1.000016e+02
1.000013e+02
1.000009e+02
1.000006e+02
1.000003e+02
9.999992e+01
9.999958e+01
9.999923e+01
9.999889e+01
9.999855e+01
9.999821e+01
9.999786e+01
9.999752e+01
9.999718e+01
9.999684e+01
9.999650e+01
9.999615e+01
9.999581e+01
9.999547e+01
9.999513e+01
9.999479e+01
9.999444e+01
9.999410e+01
9.999376e+01
9.999342e+01
9.999308e+01
9.999273e+01
9.999239e+01
9.999205e+01
9.999171e+01
9.999137e+01
9.999102e+01
9.999068e+01
9.999034e+01
9.999000e+01
9.998966e+01
9.998931e+01
9.998897e+01
9.998863e+01
9.998829e+01
9.998795e+01
9.998760e+01
1.000058e+02
1.000055e+02
1.000051e+02
1.000048e+02
1.000044e+02
1.000041e+02
1.000038e+02
1.000034e+02
1.000031e+02
1.000027e+02
1.000024e+02
1.000021e+02
1.000017e+02
1.000014e+02
1.000010e+02
1.000007e+02
1.000003e+02
1.000000e+02
9.999966e+01
9.999932e+01
9.999898e+01
9.999864e+01
9.999829e+01
9.999795e+01
9.999761e+01
9.999727e+01
9.999693e+01
9.999658e+01
9.999624e+01
9.999590e+01
9.999556e+01
9.999522e+01
9.999487e+01
9.999453e+01
9.999419e+01
9.999385e+01
9.999351e+01
9.999316e+01
9.999282e+01
9.999248e+01
9.999214e+01
9.999179e+01
9.999145e+01
9.999111e+01
9.999077e+01
9.999043e+01
9.999008e+01
9.998974e+01
9.998940e+01
9.998906e+01
9.998872e+01
9.998837e+01
9.998803e+01
9.998769e+01
9.998735e+01
9.998701e+01
9.998666e+01
1.000049e+02
1.000045e+02
1.000042e+02
1.000039e+02
1.000035e+02
1.000032e+02
1.000028e+02
1.000025e+02
1.000021e+02
1.000018e+02
1.000015e+02
1.000011e+02
1.000008e+02
1.000004e+02
1.000001e+02
9.999975e+01
9.999941e+01
9.999906e+01
9.999872e+01
9.999838e+01
9.999804e+01
9.999770e+01
9.999735e+01
9.999701e+01
9.999667e+01
9.999633e+01
9.999599e+01
9.999564e+01
9.999530e+01
9.999496e+01
9.999462e+01
9.999428e+01
9.999393e+01
9.999359e+01
9.999325e+01
9.999291e+01
9.999257e+01
9.999222e+01
9.999188e+01
9.999154e+01
9.999120e+01
9.999086e+01
9.999051e+01
9.999017e+01
9.998983e+01
9.998949e+01
9.998915e+01
9.998880e+01
9.998846e+01
9.998812e+01
9.998778e+01
9.998744e+01
9.998709e+01
9.998675e+01
9.998641e+01
9.998607e+01
9.998572e+01
1.000039e+02
1.000036e+02
1.000033e+02
1.000029e+02
1.000026e+02
1.000022e+02
1.000019e+02
1.000015e+02
1.000012e+02
1.000009e+02
1.000005e+02
1.000002e+02
9.999983e+01
9.999949e+01
9.999915e+01
9.999881e+01
9.999847e+01
9.999812e+01
9.999778e+01
9.999744e+01
9.999710e+01
9.999676e+01
9.999641e+01
9.999607e+01
9.999573e+01
9.999539e+01
9.999505e+01
9.999470e+01
9.999436e+01
9.999402e+01
9.999368e+01
9.999334e+01
9.999299e+01
9.999265e+01
9.999231e+01
9.999197e+01
9.999163e+01
9.999128e+01
9.999094e+01
9.999060e+01
9.999026e+01
9.998992e+01
9.998957e+01
9.998923e+01
9.998889e+01
9.998855e+01
9.998821e+01
9.998786e+01
9.998752e+01
9.998718e+01
9.998684e+01
9.998650e+01
9.998615e+01
9.998581e+01
9.998547e+01
9.998513e+01
9.998479e+01
1.000030e+02
1.000027e+02
1.000023e+02
1.000020e+02
1.000016e+02
1.000013e+02
1.000009e+02
1.000006e+02
1.000003e+02
9.999992e+01
9.999958e+01
9.999924e+01
9.999889e+01
9.999855e+01
9.999821e+01
9.999787e+01
9.999753e+01
9.999718e+01
9.999684e+01
9.999650e+01
9.999616e+01
9.999582e+01
9.999547e+01
9.999513e+01
9.999479e+01
9.999445e+01
9.999411e+01
9.999376e+01
9.999342e+01
9.999308e+01
9.999274e+01
9.999240e+01
9.999205e+01
9.999171e+01
9.999137e+01
9.999103e+01
9.999069e+01
9.999034e+01
9.999000e+01
9.998966e+01
9.998932e+01
9.998898e+01
9.998863e+01
9.998829e+01
9.998795e+01
9.998761e+01
9.998727e+01
9.998692e+01
9.998658e+01
9.998624e+01
9.998590e+01
9.998556e+01
9.998521e+01
9.998487e+01
9.998453e+01
9.998419e+01
9.998385e+01
1.000021e+02
1.000017e+02
1.000014e+02
1.000010e+02
1.000007e+02
1.000003e+02
1.000000e+02
9.999966e+01
9.999932e+01
9.999898e+01
9.999864e+01
9.999830e+01
9.999795e+01
9.999761e+01
9.999727e+01
9.999693e+01
9.999659e+01
9.999624e+01
9.999590e+01
9.999556e+01
9.999522e+01
9.999488e+01
9.999453e+01
9.999419e+01
9.999385e+01
9.999351e+01
9.999317e+01
9.999282e+01
9.999248e+01
9.999214e+01
9.999180e+01
9.999146e+01
9.999111e+01
9.999077e+01
9.999043e+01
9.999009e+01
9.998975e+01
9.998940e+01
9.998906e+01
9.998872e+01
9.998838e+01
9.998804e+01
9.998769e+01
9.998735e+01
9.998701e+01
9.998667e+01
9.998633e+01
9.998598e+01
9.998564e+01
9.998530e+01
9.998496e+01
9.998462e+01
9.998427e+01
9.998393e+01
9.998359e+01
9.998325e+01
9.998291e+01
1.000011e+02
1.000008e+02
1.000004e+02
1.000001e+02
9.999975e+01
9.999941e+01
9.999907e+01
9.999873e+01
9.999838e+01
9.999804e+01
9.999770e+01
9.999736e+01
9.999702e+01
9.999667e+01
9.999633e+01
9.999599e+01
9.999565e+01
9.999530e+01
9.999496e+01
9.999462e+01
9.999428e+01
9.999394e+01
9.999359e+01
9.999325e+01
9.999291e+01
9.999257e+01
9.999223e+01
9.999188e+01
9.999154e+01
9.999120e+01
9.999086e+01
9.999052e+01
9.999017e+01
9.998983e+01
9.998949e+01
9.998915e+01
9.998881e+01
9.998846e+01
9.998812e+01
9.998778e+01
9.998744e+01
9.998710e+01
9.998675e+01
9.998641e+01
9.998607e+01
9.998573e+01
9.998539e+01
9.998504e+01
9.998470e+01
9.998436e+01
9.998402e+01
9.998368e+01
9.998333e+01
9.998299e+01
9.998265e+01
9.998231e+01
9.998197e+01
1.000002e+02
9.999984e+01
9.999950e+01
9.999915e+01
9.999881e+01
9.999847e+01
9.999813e+01
9.999779e+01
9.999744e+01
9.999710e+01
9.999676e+01
9.999642e+01
9.999608e+01
9.999573e+01
9.999539e+01
9.999505e+01
9.999471e+01
9.999437e+01
9.999402e+01
9.999368e+01
9.999334e+01
9.999300e+01
9.999266e+01
9.999231e+01
9.999197e+01
9.999163e+01
9.999129e+01
9.999095e+01
9.999060e+01
9.999026e+01
9.998992e+01
9.998958e+01
9.998923e+01
9.998889e+01
9.998855e+01
9.998821e+01
9.998787e+01
9.998752e+01
9.998718e+01
9.998684e+01
9.998650e+01
9.998616e+01
9.998581e+01
9.998547e+01
9.998513e+01
9.998479e+01
9.998445e+01
9.998410e+01
9.998376e+01
9.998342e+01
9.998308e+01
9.998274e+01
9.998239e+01
9.998205e+01
9.998171e+01
9.998137e+01
9.998103e+01
9.999924e+01
9.999890e+01
9.999856e+01
9.999821e+01
9.999787e+01
9.999753e+01
9.999719e+01
9.999685e+01
9.999650e+01
9.999616e+01
9.999582e+01
9.999548e+01
9.999514e+01
9.999479e+01
9.999445e+01
9.999411e+01
9.999377e+01
9.999343e+01
9.999308e+01
9.999274e+01
9.999240e+01
9.999206e+01
9.999172e+01
9.999137e+01
9.999103e+01
9.999069e+01
9.999035e+01
9.999001e+01
9.998966e+01
9.998932e+01
9.998898e+01
9.998864e+01
9.998830e+01
9.998795e+01
9.998761e+01
9.998727e+01
9.998693e+01
9.998659e+01
9.998624e+01
9.998590e+01
9.998556e+01
9.998522e+01
9.998488e+01
9.998453e+01
9.998419e+01
9.998385e+01
9.998351e+01
9.998316e+01
9.998282e+01
9.998248e+01
9.998214e+01
9.998180e+01
9.998145e+01
9.998111e+01
9.998077e+01
9.998043e+01
9.998009e+01
9.999830e+01
9.999796e+01
9.999762e+01
9.999727e+01
9.999693e+01
9.999659e+01
9.999625e+01
9.999591e+01
9.999556e+01
9.999522e+01
9.999488e+01
9.999454e+01
9.999420e+01
9.999385e+01
9.999351e+01
9.999317e+01
9.999283e+01
9.999249e+01
9.999214e+01
9.999180e+01
9.999146e+01
9.999112e+01
9.999078e+01
9.999043e+01
9.999009e+01
9.998975e+01
9.998941e+01
9.998907e+01
9.998872e+01
9.998838e+01
9.998804e+01
9.998770e+01
9.998736e+01
9.998701e+01
9.998667e+01
9.998633e+01
9.998599e+01
9.998565e+01
9.998530e+01
9.998496e+01
9.998462e+01
9.998428e+01
9.998394e+01
9.998359e+01
9.998325e+01
9.998291e+01
9.998257e+01
9.998223e+01
9.998188e+01
9.998154e+01
9.998120e+01
9.998086e+01
9.998052e+01
9.998017e+01
9.997983e+01
9.997949e+01
9.997915e+01
9.999736e+01
9.999702e+01
9.999668e+01
9.999633e+01
9.999599e+01
9.999565e+01
9.999531e+01
9.999497e+01
9.999462e+01
9.999428e+01
9.999394e+01
9.999360e+01
9.999326e+01
9.999291e+01
9.999257e+01
9.999223e+01
9.999189e+01
9.999155e+01
9.999120e+01
9.999086e+01
9.999052e+01
9.999018e+01
9.998984e+01
9.998949e+01
9.998915e+01
9.998881e+01
9.998847e+01
9.998813e+01
9.998778e+01
9.998744e+01
9.998710e+01
9.998676e+01
9.998642e+01
9.998607e+01
9.998573e+01
9.998539e+01
9.998505e+01
9.998471e+01
9.998436e+01
9.998402e+01
9.998368e+01
9.998334e+01
9.998300e+01
9.998265e+01
9.998231e+01
9.998197e+01
9.998163e+01
9.998129e+01
9.998094e+01
9.998060e+01
9.998026e+01
9.997992e+01
9.997958e+01
9.997923e+01
9.997889e+01
9.997855e+01
9.997821e+01
9.999642e+01
9.999608e+01
9.999574e+01
9.999539e+01
9.999505e+01
9.999471e+01
9.999437e+01
9.999403e+01
9.999368e+01
9.999334e+01
9.999300e+01
9.999266e+01
9.999232e+01
9.999197e+01
9.999163e+01
9.999129e+01
9.999095e+01
9.999061e+01
9.999026e+01
9.998992e+01
9.998958e+01
9.998924e+01
9.998890e+01
9.998855e+01
9.998821e+01
9.998787e+01
9.998753e+01
9.998719e+01
9.998684e+01
9.998650e+01
9.998616e+01
9.998582e+01
9.998548e+01
9.998513e+01
9.998479e+01
9.998445e+01
9.998411e+01
9.998377e+01
9.998342e+01
9.998308e+01
9.998274e+01
9.998240e+01
9.998206e+01
9.998171e+01
9.998137e+01
9.998103e+01
9.998069e+01
9.998035e+01
9.998000e+01
9.997966e+01
9.997932e+01
9.997898e+01
9.997864e+01
9.997829e+01
9.997795e+01
9.997761e+01
9.997727e+01
9.999548e+01
9.999514e+01
9.999480e+01
9.999446e+01
9.999411e+01
9.999377e+01
9.999343e+01
9.999309e+01
9.999275e+01
9.999240e+01
9.999206e+01
9.999172e+01
9.999138e+01
9.999103e+01
9.999069e+01
9.999035e+01
9.999001e+01
9.998967e+01
9.998932e+01
9.998898e+01
9.998864e+01
9.998830e+01
9.998796e+01
9.998761e+01
9.998727e+01
9.998693e+01
9.998659e+01
9.998625e+01
9.998590e+01
9.998556e+01
9.998522e+01
9.998488e+01
9.998454e+01
9.998419e+01
9.998385e+01
9.998351e+01
9.998317e+01
9.998283e+01
9.998248e+01
9.998214e+01
9.998180e+01
9.998146e+01
9.998112e+01
9.998077e+01
9.998043e+01
9.998009e+01
9.997975e+01
9.997941e+01
9.997906e+01
9.997872e+01
9.997838e+01
9.997804e+01
9.997770e+01
9.997735e+01
9.997701e+01
9.997667e+01
9.997633e+01
9.999454e+01
9.999420e+01
9.999386e+01
9.999352e+01
9.999317e+01
9.999283e+01
9.999249e+01
9.999215e+01
9.999181e+01
9.999146e+01
9.999112e+01
9.999078e+01
9.999044e+01
9.999010e+01
9.998975e+01
9.998941e+01
9.998907e+01
9.998873e+01
9.998839e+01
9.998804e+01
9.998770e+01
9.998736e+01
9.998702e+01
9.998668e+01
9.998633e+01
9.998599e+01
9.998565e+01
9.998531e+01
9.998496e+01
9.998462e+01
9.998428e+01
9.998394e+01
9.998360e+01
9.998325e+01
9.998291e+01
9.998257e+01
9.998223e+01
9.998189e+01
9.998154e+01
9.998120e+01
9.998086e+01
9.998052e+01
9.998018e+01
9.997983e+01
9.997949e+01
9.997915e+01
9.997881e+01
9.997847e+01
9.997812e+01
9.997778e+01
9.997744e+01
9.997710e+01
9.997676e+01
9.997641e+01
9.997607e+01
9.997573e+01
9.997539e+01
9.999360e+01
9.999326e+01
9.999292e+01
9.999258e+01
9.999223e+01
9.999189e+01
9.999155e+01
9.999121e+01
9.999087e+01
9.999052e+01
9.999018e+01
9.998984e+01
9.998950e+01
9.998916e+01
9.998881e+01
9.998847e+01
9.998813e+01
9.998779e+01
9.998745e+01
9.998710e+01
9.998676e+01
9.998642e+01
9.998608e+01
9.998574e+01
9.998539e+01
9.998505e+01
9.998471e+01
9.998437e+01
9.998403e+01
9.998368e+01
9.998334e+01
9.998300e+01
9.998266e+01
9.998232e+01
9.998197e+01
9.998163e+01
9.998129e+01
9.998095e+01
9.998061e+01
9.998026e+01
9.997992e+01
9.997958e+01
9.997924e+01
9.997889e+01
9.997855e+01
9.997821e+01
9.997787e+01
9.997753e+01
9.997718e+01
9.997684e+01
9.997650e+01
9.997616e+01
9.997582e+01
9.997547e+01
9.997513e+01
9.997479e+01
9.997445e+01
9.999266e+01
9.999232e+01
9.999198e+01
9.999164e+01
9.999129e+01
9.999095e+01
9.999061e+01
9.999027e+01
9.998993e+01
9.998958e+01
9.998924e+01
9.998890e+01
9.998856e+01
9.998822e+01
9.998787e+01
9.998753e+01
9.998719e+01
9.998685e+01
9.998651e+01
9.998616e+01
9.998582e+01
9.998548e+01
9.998514e+01
9.998480e+01
9.998445e+01
9.998411e+01
9.998377e+01
9.998343e+01
9.998309e+01
9.998274e+01
9.998240e+01
9.998206e+01
9.998172e+01
9.998138e+01
9.998103e+01
9.998069e+01
9.998035e+01
9.998001e+01
9.997967e+01
9.997932e+01
9.997898e+01
9.997864e+01
9.997830e+01
9.997796e+01
9.997761e+01
9.997727e+01
9.997693e+01
9.997659e+01
9.997625e+01
9.997590e+01
9.997556e+01
9.997522e+01
9.997488e+01
9.997454e+01
9.997419e+01
9.997385e+01
9.997351e+01
9.999172e+01
9.999138e+01
9.999104e+01
9.999070e+01
9.999035e+01
9.999001e+01
9.998967e+01
9.998933e+01
9.998899e+01
9.998864e+01
9.998830e+01
9.998796e+01
9.998762e+01
9.998728e+01
9.998693e+01
9.998659e+01
9.998625e+01
9.998591e+01
9.998557e+01
9.998522e+01
9.998488e+01
9.998454e+01
9.998420e+01
9.998386e+01
9.998351e+01
9.998317e+01
9.998283e+01
9.998249e+01
9.998215e+01
9.998180e+01
9.998146e+01
9.998112e+01
9.998078e+01
9.998044e+01
9.998009e+01
9.997975e+01
9.997941e+01
9.997907e+01
9.997873e+01
9.997838e+01
9.997804e+01
9.997770e+01
9.997736e+01
9.997702e+01
9.997667e+01
9.997633e+01
9.997599e+01
9.997565e+01
9.997531e+01
9.997496e+01
9.997462e+01
9.997428e+01
9.997394e+01
9.997360e+01
9.997325e+01
9.997291e+01
9.997257e+01
9.999078e+01
9.999044e+01
9.999010e+01
9.998976e+01
9.998941e+01
9.998907e+01
9.998873e+01
9.998839e+01
9.998805e+01
9.998770e+01
9.998736e+01
9.998702e+01
9.998668e+01
9.998634e+01
9.998599e+01
9.998565e+01
9.998531e+01
9.998497e+01
9.998463e+01
9.998428e+01
9.998394e+01
9.998360e+01
9.998326e+01
9.998292e+01
9.998257e+01
9.998223e+01
9.998189e+01
9.998155e+01
9.998121e+01
9.998086e+01
9.998052e+01
9.998018e+01
9.997984e+01
9.997950e+01
9.997915e+01
9.997881e+01
9.997847e+01
9.997813e+01
9.997779e+01
9.997744e+01
9.997710e+01
9.997676e+01
9.997642e+01
9.997608e+01
9.997573e+01
9.997539e+01
9.997505e+01
9.997471e+01
9.997437e+01
9.997402e+01
9.997368e+01
9.997334e+01
9.997300e+01
9.997266e+01
9.997231e+01
9.997197e+01
9.997163e+01
